  16  16   0   0
  0.1762901E+02  0.7166537E-09  0.5682428E-09  0.6926355E-09  0.5000000E-15
  1.000000000000000E-004
  CAR 
 unknown system                          
     11.45589726    -43.68526222  301      2.90901754      1.00000000
    -43.685  0.0000E+00  0.0000E+00
    -43.501  0.0000E+00  0.0000E+00
    -43.318  0.0000E+00  0.0000E+00
    -43.134  0.0000E+00  0.0000E+00
    -42.950  0.0000E+00  0.0000E+00
    -42.766  0.0000E+00  0.0000E+00
    -42.582  0.0000E+00  0.0000E+00
    -42.399  0.0000E+00  0.0000E+00
    -42.215  0.0000E+00  0.0000E+00
    -42.031  0.0000E+00  0.0000E+00
    -41.847  0.0000E+00  0.0000E+00
    -41.663  0.0000E+00  0.0000E+00
    -41.480  0.0000E+00  0.0000E+00
    -41.296  0.0000E+00  0.0000E+00
    -41.112  0.0000E+00  0.4000E-01
    -40.928  0.0000E+00  0.4000E-01
    -40.744  0.0000E+00  0.4000E-01
    -40.561  0.0000E+00  0.1200E+00
    -40.377  0.0000E+00  0.1200E+00
    -40.193  0.0000E+00  0.1200E+00
    -40.009  0.0000E+00  0.1200E+00
    -39.825  0.0000E+00  0.1200E+00
    -39.642  0.0000E+00  0.1200E+00
    -39.458  0.0000E+00  0.1200E+00
    -39.274  0.0000E+00  0.1200E+00
    -39.090  0.0000E+00  0.1200E+00
    -38.906  0.0000E+00  0.1200E+00
    -38.723  0.0000E+00  0.1200E+00
    -38.539  0.0000E+00  0.1200E+00
    -38.355  0.0000E+00  0.1200E+00
    -38.171  0.0000E+00  0.1200E+00
    -37.987  0.0000E+00  0.1200E+00
    -37.804  0.0000E+00  0.1200E+00
    -37.620  0.0000E+00  0.1200E+00
    -37.436  0.0000E+00  0.1200E+00
    -37.252  0.0000E+00  0.1200E+00
    -37.068  0.0000E+00  0.1200E+00
    -36.885  0.0000E+00  0.1200E+00
    -36.701  0.0000E+00  0.1200E+00
    -36.517  0.0000E+00  0.1200E+00
    -36.333  0.0000E+00  0.1200E+00
    -36.149  0.0000E+00  0.1200E+00
    -35.965  0.0000E+00  0.1200E+00
    -35.782  0.0000E+00  0.1200E+00
    -35.598  0.0000E+00  0.1200E+00
    -35.414  0.0000E+00  0.1200E+00
    -35.230  0.0000E+00  0.1200E+00
    -35.046  0.0000E+00  0.1200E+00
    -34.863  0.0000E+00  0.1200E+00
    -34.679  0.0000E+00  0.1200E+00
    -34.495  0.0000E+00  0.1200E+00
    -34.311  0.0000E+00  0.1200E+00
    -34.127  0.0000E+00  0.1200E+00
    -33.944  0.0000E+00  0.1200E+00
    -33.760  0.0000E+00  0.1200E+00
    -33.576  0.0000E+00  0.1200E+00
    -33.392  0.0000E+00  0.1200E+00
    -33.208  0.0000E+00  0.1200E+00
    -33.025  0.0000E+00  0.1200E+00
    -32.841  0.0000E+00  0.1200E+00
    -32.657  0.0000E+00  0.1200E+00
    -32.473  0.0000E+00  0.1200E+00
    -32.289  0.0000E+00  0.1200E+00
    -32.106  0.0000E+00  0.1200E+00
    -31.922  0.0000E+00  0.1200E+00
    -31.738  0.0000E+00  0.1200E+00
    -31.554  0.0000E+00  0.1200E+00
    -31.370  0.0000E+00  0.1200E+00
    -31.187  0.0000E+00  0.1200E+00
    -31.003  0.0000E+00  0.1200E+00
    -30.819  0.0000E+00  0.1200E+00
    -30.635  0.0000E+00  0.1200E+00
    -30.451  0.0000E+00  0.1200E+00
    -30.268  0.0000E+00  0.1200E+00
    -30.084  0.0000E+00  0.1200E+00
    -29.900  0.0000E+00  0.1200E+00
    -29.716  0.0000E+00  0.1200E+00
    -29.532  0.0000E+00  0.1200E+00
    -29.349  0.0000E+00  0.1200E+00
    -29.165  0.0000E+00  0.1200E+00
    -28.981  0.0000E+00  0.1200E+00
    -28.797  0.0000E+00  0.1200E+00
    -28.613  0.0000E+00  0.1200E+00
    -28.430  0.0000E+00  0.1200E+00
    -28.246  0.0000E+00  0.1200E+00
    -28.062  0.0000E+00  0.1200E+00
    -27.878  0.0000E+00  0.1200E+00
    -27.694  0.0000E+00  0.1200E+00
    -27.511  0.0000E+00  0.1200E+00
    -27.327  0.0000E+00  0.1200E+00
    -27.143  0.0000E+00  0.1200E+00
    -26.959  0.0000E+00  0.1200E+00
    -26.775  0.0000E+00  0.1200E+00
    -26.592  0.0000E+00  0.1200E+00
    -26.408  0.0000E+00  0.1200E+00
    -26.224  0.0000E+00  0.1200E+00
    -26.040  0.0000E+00  0.1200E+00
    -25.856  0.0000E+00  0.1200E+00
    -25.672  0.0000E+00  0.1200E+00
    -25.489  0.0000E+00  0.1200E+00
    -25.305  0.0000E+00  0.1200E+00
    -25.121  0.0000E+00  0.1200E+00
    -24.937  0.0000E+00  0.1200E+00
    -24.753  0.0000E+00  0.1200E+00
    -24.570  0.0000E+00  0.1200E+00
    -24.386  0.0000E+00  0.1200E+00
    -24.202  0.0000E+00  0.1200E+00
    -24.018  0.0000E+00  0.1200E+00
    -23.834  0.0000E+00  0.1200E+00
    -23.651  0.0000E+00  0.1200E+00
    -23.467  0.0000E+00  0.1200E+00
    -23.283  0.0000E+00  0.1200E+00
    -23.099  0.0000E+00  0.1200E+00
    -22.915  0.0000E+00  0.1200E+00
    -22.732  0.0000E+00  0.1200E+00
    -22.548  0.0000E+00  0.1200E+00
    -22.364  0.0000E+00  0.1200E+00
    -22.180  0.0000E+00  0.1200E+00
    -21.996  0.0000E+00  0.1200E+00
    -21.813  0.0000E+00  0.1200E+00
    -21.629  0.0000E+00  0.1200E+00
    -21.445  0.0000E+00  0.1200E+00
    -21.261  0.0000E+00  0.1200E+00
    -21.077  0.0000E+00  0.1200E+00
    -20.894  0.0000E+00  0.1200E+00
    -20.710  0.0000E+00  0.1200E+00
    -20.526  0.0000E+00  0.1200E+00
    -20.342  0.0000E+00  0.1200E+00
    -20.158  0.0000E+00  0.1200E+00
    -19.975  0.0000E+00  0.1200E+00
    -19.791  0.0000E+00  0.1200E+00
    -19.607  0.0000E+00  0.1200E+00
    -19.423  0.0000E+00  0.1200E+00
    -19.239  0.0000E+00  0.1200E+00
    -19.056  0.0000E+00  0.1200E+00
    -18.872  0.0000E+00  0.1200E+00
    -18.688  0.0000E+00  0.1200E+00
    -18.504  0.0000E+00  0.1200E+00
    -18.320  0.0000E+00  0.1200E+00
    -18.137  0.0000E+00  0.1200E+00
    -17.953  0.0000E+00  0.1200E+00
    -17.769  0.0000E+00  0.1200E+00
    -17.585  0.0000E+00  0.1200E+00
    -17.401  0.0000E+00  0.1200E+00
    -17.218  0.0000E+00  0.1200E+00
    -17.034  0.0000E+00  0.1200E+00
    -16.850  0.0000E+00  0.1200E+00
    -16.666  0.0000E+00  0.1200E+00
    -16.482  0.0000E+00  0.1200E+00
    -16.298  0.0000E+00  0.1200E+00
    -16.115  0.0000E+00  0.1200E+00
    -15.931  0.0000E+00  0.1200E+00
    -15.747  0.0000E+00  0.1200E+00
    -15.563  0.0000E+00  0.1200E+00
    -15.379  0.0000E+00  0.1200E+00
    -15.196  0.0000E+00  0.1200E+00
    -15.012  0.0000E+00  0.1200E+00
    -14.828  0.0000E+00  0.1200E+00
    -14.644  0.0000E+00  0.1200E+00
    -14.460  0.0000E+00  0.1200E+00
    -14.277  0.0000E+00  0.1200E+00
    -14.093  0.0000E+00  0.1200E+00
    -13.909  0.0000E+00  0.1200E+00
    -13.725  0.0000E+00  0.1200E+00
    -13.541  0.0000E+00  0.1200E+00
    -13.358  0.0000E+00  0.1200E+00
    -13.174  0.0000E+00  0.1200E+00
    -12.990  0.0000E+00  0.1200E+00
    -12.806  0.0000E+00  0.1200E+00
    -12.622  0.0000E+00  0.1200E+00
    -12.439  0.0000E+00  0.1200E+00
    -12.255  0.1359E+00  0.1582E+00
    -12.071  0.0000E+00  0.1600E+00
    -11.887  0.0000E+00  0.1600E+00
    -11.703  0.0000E+00  0.1600E+00
    -11.520  0.0000E+00  0.1600E+00
    -11.336  0.0000E+00  0.1600E+00
    -11.152  0.0000E+00  0.1600E+00
    -10.968  0.0000E+00  0.1600E+00
    -10.784  0.0000E+00  0.1600E+00
    -10.601  0.0000E+00  0.1600E+00
    -10.417  0.0000E+00  0.1600E+00
    -10.233  0.0000E+00  0.1600E+00
    -10.049  0.0000E+00  0.1600E+00
     -9.865  0.0000E+00  0.1600E+00
     -9.682  0.0000E+00  0.1600E+00
     -9.498  0.4010E-01  0.1607E+00
     -9.314  0.0000E+00  0.2000E+00
     -9.130  0.7501E-01  0.2393E+00
     -8.946  0.0000E+00  0.2800E+00
     -8.763  0.0000E+00  0.2800E+00
     -8.579  0.0000E+00  0.2800E+00
     -8.395  0.0000E+00  0.2800E+00
     -8.211  0.0000E+00  0.2800E+00
     -8.027  0.0000E+00  0.2800E+00
     -7.844  0.0000E+00  0.2800E+00
     -7.660  0.0000E+00  0.2800E+00
     -7.476  0.0000E+00  0.2800E+00
     -7.292  0.0000E+00  0.2800E+00
     -7.108  0.0000E+00  0.2800E+00
     -6.924  0.0000E+00  0.2800E+00
     -6.741  0.0000E+00  0.2800E+00
     -6.557  0.0000E+00  0.2800E+00
     -6.373  0.0000E+00  0.2800E+00
     -6.189  0.0000E+00  0.2800E+00
     -6.005  0.0000E+00  0.2800E+00
     -5.822  0.0000E+00  0.2800E+00
     -5.638  0.0000E+00  0.2800E+00
     -5.454  0.0000E+00  0.2800E+00
     -5.270  0.9720E-02  0.2805E+00
     -5.086  0.3150E-01  0.2843E+00
     -4.903  0.4900E-01  0.2937E+00
     -4.719  0.1351E+00  0.3174E+00
     -4.535  0.0000E+00  0.3200E+00
     -4.351  0.0000E+00  0.3200E+00
     -4.167  0.0000E+00  0.3200E+00
     -3.984  0.0000E+00  0.3200E+00
     -3.800  0.0000E+00  0.3200E+00
     -3.616  0.0000E+00  0.3200E+00
     -3.432  0.0000E+00  0.3200E+00
     -3.248  0.0000E+00  0.3200E+00
     -3.065  0.0000E+00  0.3200E+00
     -2.881  0.0000E+00  0.3200E+00
     -2.697  0.0000E+00  0.3200E+00
     -2.513  0.1421E-01  0.3205E+00
     -2.329  0.1047E+00  0.3321E+00
     -2.146  0.5711E-01  0.3547E+00
     -1.962  0.1152E+00  0.3883E+00
     -1.778  0.0000E+00  0.4000E+00
     -1.594  0.3780E+00  0.4271E+00
     -1.410  0.0000E+00  0.4400E+00
     -1.227  0.0000E+00  0.4400E+00
     -1.043  0.0000E+00  0.4400E+00
     -0.859  0.0000E+00  0.4400E+00
     -0.675  0.0000E+00  0.4400E+00
     -0.491  0.0000E+00  0.4400E+00
     -0.308  0.2886E-01  0.4437E+00
     -0.124  0.1134E+00  0.4585E+00
      0.060  0.7092E-01  0.4790E+00
      0.244  0.1016E+00  0.4938E+00
      0.428  0.7948E-01  0.5161E+00
      0.611  0.5532E-01  0.5317E+00
      0.795  0.1828E+00  0.5444E+00
      0.979  0.4823E-01  0.5683E+00
      1.163  0.1112E+00  0.5821E+00
      1.347  0.2228E-01  0.5967E+00
      1.530  0.9389E-01  0.6212E+00
      1.714  0.1062E+00  0.6392E+00
      1.898  0.1659E+00  0.6647E+00
      2.082  0.1595E+00  0.6924E+00
      2.266  0.1019E+00  0.7264E+00
      2.450  0.2834E-01  0.7475E+00
      2.633  0.2775E-01  0.7555E+00
      2.817  0.1080E-01  0.7594E+00
      3.001  0.0000E+00  0.7600E+00
      3.185  0.0000E+00  0.7600E+00
      3.369  0.0000E+00  0.7600E+00
      3.552  0.0000E+00  0.7600E+00
      3.736  0.0000E+00  0.7600E+00
      3.920  0.0000E+00  0.7600E+00
      4.104  0.0000E+00  0.7600E+00
      4.288  0.0000E+00  0.7600E+00
      4.471  0.0000E+00  0.7600E+00
      4.655  0.0000E+00  0.7600E+00
      4.839  0.0000E+00  0.7600E+00
      5.023  0.4580E-02  0.7604E+00
      5.207  0.8960E-02  0.7616E+00
      5.390  0.1447E-01  0.7638E+00
      5.574  0.3101E-01  0.7692E+00
      5.758  0.4397E-01  0.7754E+00
      5.942  0.5462E-01  0.7876E+00
      6.126  0.3647E-01  0.7963E+00
      6.309  0.2858E-01  0.8049E+00
      6.493  0.5310E-01  0.8123E+00
      6.677  0.7699E-01  0.8267E+00
      6.861  0.6718E-01  0.8450E+00
      7.045  0.6285E-01  0.8594E+00
      7.228  0.5531E-01  0.8692E+00
      7.412  0.2464E+00  0.8816E+00
      7.596  0.6651E-01  0.9126E+00
      7.780  0.1057E-01  0.9189E+00
      7.964  0.0000E+00  0.9200E+00
      8.147  0.0000E+00  0.9200E+00
      8.331  0.5961E-01  0.9261E+00
      8.515  0.5924E-01  0.9377E+00
      8.699  0.3620E-01  0.9542E+00
      8.883  0.1409E-01  0.9589E+00
      9.066  0.0000E+00  0.9600E+00
      9.250  0.0000E+00  0.9600E+00
      9.434  0.0000E+00  0.9600E+00
      9.618  0.0000E+00  0.9600E+00
      9.802  0.0000E+00  0.9600E+00
      9.985  0.0000E+00  0.9600E+00
     10.169  0.0000E+00  0.9600E+00
     10.353  0.0000E+00  0.9600E+00
     10.537  0.0000E+00  0.9600E+00
     10.721  0.0000E+00  0.9600E+00
     10.904  0.0000E+00  0.9600E+00
     11.088  0.0000E+00  0.9600E+00
     11.272  0.0000E+00  0.9600E+00
     11.456  0.0000E+00  0.9600E+00
