       N       E                     dE             d eps       ncg     rms          rms(c)
DAV:   1     0.491321445996E+03    0.49132E+03   -0.28138E+04   768   0.130E+03
DAV:   2    -0.116505608108E+02   -0.50297E+03   -0.47956E+03   912   0.307E+02
DAV:   3    -0.717573164133E+02   -0.60107E+02   -0.59599E+02  1056   0.951E+01
DAV:   4    -0.786269102614E+02   -0.68696E+01   -0.68468E+01  1408   0.310E+01
DAV:   5    -0.794477105575E+02   -0.82080E+00   -0.82064E+00  1136   0.728E+00    0.234E+01
RMM:   6    -0.772230025111E+02    0.22247E+01   -0.56250E+00   808   0.574E+00    0.151E+01
RMM:   7    -0.767622134651E+02    0.46079E+00   -0.33422E+00   827   0.461E+00    0.365E+00
RMM:   8    -0.766775342443E+02    0.84679E-01   -0.21619E-01   970   0.153E+00    0.660E-01
RMM:   9    -0.766711621611E+02    0.63721E-02   -0.47093E-02   915   0.629E-01    0.222E-01
RMM:  10    -0.766710777441E+02    0.84417E-04   -0.91907E-03  1107   0.264E-01    0.166E-01
RMM:  11    -0.766713922244E+02   -0.31448E-03   -0.39966E-03  1082   0.146E-01    0.719E-02
RMM:  12    -0.766715417082E+02   -0.14948E-03   -0.20965E-03  1077   0.109E-01    0.302E-02
RMM:  13    -0.766716171312E+02   -0.75423E-04   -0.87431E-04   733   0.683E-02    0.157E-02
RMM:  14    -0.766716581986E+02   -0.41067E-04   -0.48745E-04   895   0.591E-02    0.492E-03
RMM:  15    -0.766716757968E+02   -0.17598E-04   -0.21862E-04   635   0.452E-02    0.401E-03
RMM:  16    -0.766716845015E+02   -0.87047E-05   -0.11562E-04   634   0.405E-02
   1 F= -.76671685E+02 E0= -.76671685E+02  d E =-.766717E+02
       N       E                     dE             d eps       ncg     rms          rms(c)
DAV:   1    -0.767412141847E+02   -0.69538E-01   -0.68620E+00   896   0.119E+01    0.161E+00
RMM:   2    -0.767508890834E+02   -0.96749E-02   -0.39113E-01   951   0.257E+00    0.708E-01
RMM:   3    -0.767434239958E+02    0.74651E-02   -0.47671E-02  1186   0.818E-01    0.520E-01
RMM:   4    -0.767415915136E+02    0.18325E-02   -0.12647E-02  1115   0.372E-01    0.177E-01
RMM:   5    -0.767417758114E+02   -0.18430E-03   -0.43093E-03  1251   0.214E-01    0.881E-02
RMM:   6    -0.767418909145E+02   -0.11510E-03   -0.19662E-03  1149   0.137E-01    0.276E-02
RMM:   7    -0.767419389729E+02   -0.48058E-04   -0.92271E-04  1132   0.942E-02    0.278E-02
RMM:   8    -0.767419607495E+02   -0.21777E-04   -0.31361E-04   838   0.666E-02    0.748E-03
RMM:   9    -0.767419739137E+02   -0.13164E-04   -0.17738E-04   822   0.566E-02
   2 F= -.76741974E+02 E0= -.76741974E+02  d E =-.702894E-01
       N       E                     dE             d eps       ncg     rms          rms(c)
DAV:   1    -0.767631185543E+02   -0.21158E-01   -0.64010E+00   832   0.114E+01    0.157E+00
RMM:   2    -0.767710307018E+02   -0.79121E-02   -0.35404E-01   950   0.248E+00    0.681E-01
RMM:   3    -0.767647186337E+02    0.63121E-02   -0.43992E-02  1189   0.789E-01    0.499E-01
RMM:   4    -0.767630846046E+02    0.16340E-02   -0.12196E-02  1123   0.365E-01    0.170E-01
RMM:   5    -0.767632771986E+02   -0.19259E-03   -0.42156E-03  1257   0.211E-01    0.837E-02
RMM:   6    -0.767633963712E+02   -0.11917E-03   -0.19266E-03  1146   0.137E-01    0.252E-02
RMM:   7    -0.767634472681E+02   -0.50897E-04   -0.91886E-04  1125   0.954E-02    0.252E-02
RMM:   8    -0.767634727185E+02   -0.25450E-04   -0.34402E-04   871   0.686E-02    0.637E-03
RMM:   9    -0.767634837795E+02   -0.11061E-04   -0.14958E-04   780   0.569E-02
   3 F= -.76763484E+02 E0= -.76763484E+02  d E =-.917993E-01
       N       E                     dE             d eps       ncg     rms          rms(c)
DAV:   1    -0.767738377590E+02   -0.10365E-01   -0.74242E+00   784   0.120E+01    0.210E+00
RMM:   2    -0.768067045878E+02   -0.32867E-01   -0.42264E-01   951   0.273E+00    0.620E-01
RMM:   3    -0.768016359556E+02    0.50686E-02   -0.30729E-02  1174   0.717E-01    0.541E-01
RMM:   4    -0.767999002628E+02    0.17357E-02   -0.13353E-02  1013   0.363E-01    0.858E-02
RMM:   5    -0.768001438860E+02   -0.24362E-03   -0.38191E-03  1253   0.195E-01    0.605E-02
RMM:   6    -0.768002410562E+02   -0.97170E-04   -0.23524E-03  1116   0.138E-01    0.328E-02
RMM:   7    -0.768002757375E+02   -0.34681E-04   -0.95497E-04  1126   0.936E-02    0.220E-02
RMM:   8    -0.768002913422E+02   -0.15605E-04   -0.29337E-04   827   0.656E-02    0.915E-03
RMM:   9    -0.768003063101E+02   -0.14968E-04   -0.20121E-04   855   0.568E-02    0.273E-03
RMM:  10    -0.768003050122E+02    0.12979E-05   -0.10833E-05   526   0.474E-02
   4 F= -.76800305E+02 E0= -.76800305E+02  d E =-.368212E-01
       N       E                     dE             d eps       ncg     rms          rms(c)
DAV:   1    -0.768003550355E+02   -0.48725E-04   -0.13226E-01   968   0.160E+00    0.266E-01
RMM:   2    -0.768008867817E+02   -0.53175E-03   -0.68939E-03   951   0.354E-01    0.879E-02
RMM:   3    -0.768008439462E+02    0.42835E-04   -0.67467E-04  1145   0.105E-01    0.805E-02
RMM:   4    -0.768008241730E+02    0.19773E-04   -0.32286E-04  1021   0.577E-02    0.127E-02
RMM:   5    -0.768008181711E+02    0.60019E-05    0.23623E-05   464   0.363E-02
   5 F= -.76800818E+02 E0= -.76800818E+02  d E =-.373344E-01
       N       E                     dE             d eps       ncg     rms          rms(c)
DAV:   1    -0.768134466659E+02   -0.12622E-01   -0.21042E+00   784   0.628E+00    0.119E+00
RMM:   2    -0.768196801730E+02   -0.62335E-02   -0.12590E-01   925   0.145E+00    0.332E-01
RMM:   3    -0.768171358061E+02    0.25444E-02   -0.84696E-03  1142   0.372E-01    0.272E-01
RMM:   4    -0.768163580052E+02    0.77780E-03   -0.39327E-03   966   0.192E-01    0.648E-02
RMM:   5    -0.768163740711E+02   -0.16066E-04   -0.78962E-04  1132   0.922E-02    0.373E-02
RMM:   6    -0.768163850587E+02   -0.10988E-04   -0.46321E-04   975   0.626E-02    0.170E-02
RMM:   7    -0.768163749192E+02    0.10139E-04   -0.81683E-05   704   0.402E-02
   6 F= -.76816375E+02 E0= -.76816375E+02  d E =-.155567E-01
       N       E                     dE             d eps       ncg     rms          rms(c)
DAV:   1    -0.768156586391E+02    0.72642E-03   -0.16297E+00   824   0.553E+00    0.104E+00
RMM:   2    -0.768205488686E+02   -0.48902E-02   -0.97672E-02   925   0.128E+00    0.290E-01
RMM:   3    -0.768186212438E+02    0.19276E-02   -0.67586E-03  1152   0.331E-01    0.237E-01
RMM:   4    -0.768180301648E+02    0.59108E-03   -0.30668E-03   961   0.170E-01    0.567E-02
RMM:   5    -0.768180486786E+02   -0.18514E-04   -0.67461E-04  1142   0.844E-02    0.329E-02
RMM:   6    -0.768180614679E+02   -0.12789E-04   -0.40780E-04   979   0.579E-02    0.154E-02
RMM:   7    -0.768180518154E+02    0.96525E-05   -0.60463E-05   663   0.376E-02
   7 F= -.76818052E+02 E0= -.76818052E+02  d E =-.172336E-01
       N       E                     dE             d eps       ncg     rms          rms(c)
DAV:   1    -0.768186002594E+02   -0.53879E-03   -0.15443E-01   888   0.169E+00    0.331E-01
RMM:   2    -0.768191343348E+02   -0.53408E-03   -0.10006E-02   853   0.392E-01    0.928E-02
RMM:   3    -0.768188280053E+02    0.30633E-03   -0.49429E-04  1076   0.951E-02    0.739E-02
RMM:   4    -0.768187720650E+02    0.55940E-04   -0.32662E-04   853   0.504E-02    0.160E-02
RMM:   5    -0.768187638618E+02    0.82031E-05   -0.17174E-06   464   0.200E-02
   8 F= -.76818764E+02 E0= -.76818764E+02  d E =-.179457E-01
       N       E                     dE             d eps       ncg     rms          rms(c)
DAV:   1    -0.768183258562E+02    0.44621E-03   -0.22551E+00   768   0.631E+00    0.112E+00
RMM:   2    -0.768285110564E+02   -0.10185E-01   -0.14993E-01   935   0.153E+00    0.330E-01
RMM:   3    -0.768261431529E+02    0.23679E-02   -0.90886E-03  1152   0.386E-01    0.317E-01
RMM:   4    -0.768254997285E+02    0.64342E-03   -0.25141E-03   989   0.159E-01    0.124E-01
RMM:   5    -0.768255148990E+02   -0.15170E-04   -0.98612E-04  1042   0.967E-02    0.389E-02
RMM:   6    -0.768255226025E+02   -0.77036E-05   -0.43712E-04  1020   0.606E-02    0.128E-02
RMM:   7    -0.768255134105E+02    0.91920E-05    0.11681E-05   504   0.390E-02
   9 F= -.76825513E+02 E0= -.76825513E+02  d E =-.674955E-02
       N       E                     dE             d eps       ncg     rms          rms(c)
DAV:   1    -0.768257168465E+02   -0.19424E-03   -0.65826E-02   896   0.107E+00    0.196E-01
RMM:   2    -0.768260787575E+02   -0.36191E-03   -0.49394E-03   804   0.260E-01    0.550E-02
RMM:   3    -0.768259236445E+02    0.15511E-03   -0.18811E-04  1025   0.603E-02    0.475E-02
RMM:   4    -0.768259030366E+02    0.20608E-04   -0.72559E-05   685   0.273E-02    0.151E-02
RMM:   5    -0.768259021993E+02    0.83736E-06   -0.71911E-06   456   0.143E-02
  10 F= -.76825902E+02 E0= -.76825902E+02  d E =-.713834E-02
       N       E                     dE             d eps       ncg     rms          rms(c)
DAV:   1    -0.768307181444E+02   -0.48151E-02   -0.28494E-01   800   0.229E+00    0.407E-01
RMM:   2    -0.768294750813E+02    0.12431E-02   -0.16741E-02   968   0.530E-01    0.189E-01
RMM:   3    -0.768289879559E+02    0.48713E-03   -0.29837E-03  1057   0.193E-01    0.102E-01
RMM:   4    -0.768289430175E+02    0.44938E-04   -0.69570E-04  1104   0.870E-02    0.569E-02
RMM:   5    -0.768289350693E+02    0.79482E-05   -0.11703E-04   745   0.516E-02
  11 F= -.76828935E+02 E0= -.76828935E+02  d E =-.303287E-02
       N       E                     dE             d eps       ncg     rms          rms(c)
DAV:   1    -0.768363438311E+02   -0.74008E-02   -0.10192E+00   816   0.434E+00    0.779E-01
RMM:   2    -0.768319561509E+02    0.43877E-02   -0.61411E-02   968   0.101E+00    0.354E-01
RMM:   3    -0.768302565038E+02    0.16996E-02   -0.11524E-02  1068   0.378E-01    0.194E-01
RMM:   4    -0.768301268189E+02    0.12968E-03   -0.28498E-03  1159   0.175E-01    0.112E-01
RMM:   5    -0.768301464977E+02   -0.19679E-04   -0.94257E-04  1185   0.104E-01    0.268E-02
RMM:   6    -0.768301732016E+02   -0.26704E-04   -0.40524E-04   979   0.660E-02    0.184E-02
RMM:   7    -0.768301777034E+02   -0.45017E-05   -0.80478E-05   637   0.496E-02
  12 F= -.76830178E+02 E0= -.76830178E+02  d E =-.427550E-02
       N       E                     dE             d eps       ncg     rms          rms(c)
DAV:   1    -0.768310429264E+02   -0.86972E-03   -0.87220E-02   880   0.127E+00    0.222E-01
RMM:   2    -0.768306883236E+02    0.35460E-03   -0.53763E-03   934   0.291E-01    0.106E-01
RMM:   3    -0.768304961546E+02    0.19217E-03   -0.81980E-04  1034   0.999E-02    0.570E-02
RMM:   4    -0.768304723871E+02    0.23768E-04   -0.13231E-04   802   0.397E-02    0.289E-02
RMM:   5    -0.768304659649E+02    0.64222E-05    0.72478E-06   467   0.237E-02
  13 F= -.76830466E+02 E0= -.76830466E+02  d E =-.456377E-02
       N       E                     dE             d eps       ncg     rms          rms(c)
DAV:   1    -0.768303596866E+02    0.11270E-03   -0.44201E-01   768   0.310E+00    0.444E-01
RMM:   2    -0.768322348984E+02   -0.18752E-02   -0.23288E-02   962   0.648E-01    0.135E-01
RMM:   3    -0.768320001685E+02    0.23473E-03   -0.23687E-03  1213   0.195E-01    0.121E-01
RMM:   4    -0.768319523759E+02    0.47793E-04   -0.86859E-04  1047   0.877E-02    0.351E-02
RMM:   5    -0.768319622320E+02   -0.98561E-05   -0.21992E-04   808   0.554E-02    0.110E-02
RMM:   6    -0.768319665319E+02   -0.42999E-05   -0.93763E-05   686   0.446E-02
  14 F= -.76831967E+02 E0= -.76831967E+02  d E =-.150057E-02
       N       E                     dE             d eps       ncg     rms          rms(c)
DAV:   1    -0.768319930330E+02   -0.30801E-04   -0.13222E-03   992   0.160E-01    0.232E-02
RMM:   2    -0.768319964747E+02   -0.34417E-05   -0.47257E-05   502   0.330E-02
  15 F= -.76831996E+02 E0= -.76831996E+02  d E =-.153051E-02
       N       E                     dE             d eps       ncg     rms          rms(c)
DAV:   1    -0.768322837361E+02   -0.29070E-03   -0.33179E-01   768   0.282E+00    0.201E-01
RMM:   2    -0.768332891378E+02   -0.10054E-02   -0.11823E-02  1009   0.494E-01    0.636E-02
RMM:   3    -0.768333486081E+02   -0.59470E-04   -0.16723E-03  1198   0.162E-01    0.538E-02
RMM:   4    -0.768333507592E+02   -0.21511E-05   -0.64773E-04  1095   0.800E-02    0.172E-02
RMM:   5    -0.768333544522E+02   -0.36931E-05   -0.88817E-05   599   0.521E-02
  16 F= -.76833354E+02 E0= -.76833354E+02  d E =-.135798E-02
       N       E                     dE             d eps       ncg     rms          rms(c)
DAV:   1    -0.768267623018E+02    0.65885E-02   -0.21816E+00   768   0.724E+00    0.518E-01
RMM:   2    -0.768335767753E+02   -0.68145E-02   -0.80154E-02  1015   0.128E+00    0.170E-01
RMM:   3    -0.768340824036E+02   -0.50563E-03   -0.12136E-02  1244   0.430E-01    0.142E-01
RMM:   4    -0.768341236617E+02   -0.41258E-04   -0.46128E-03  1193   0.207E-01    0.472E-02
RMM:   5    -0.768342848590E+02   -0.16120E-03   -0.19544E-03  1165   0.132E-01    0.224E-02
RMM:   6    -0.768343538173E+02   -0.68958E-04   -0.90449E-04  1124   0.917E-02    0.689E-03
RMM:   7    -0.768343790275E+02   -0.25210E-04   -0.30757E-04   811   0.649E-02    0.405E-03
RMM:   8    -0.768343864343E+02   -0.74068E-05   -0.11370E-04   700   0.546E-02
  17 F= -.76834386E+02 E0= -.76834386E+02  d E =-.238996E-02
       N       E                     dE             d eps       ncg     rms          rms(c)
DAV:   1    -0.768346756991E+02   -0.29667E-03   -0.56917E-02   920   0.118E+00    0.904E-02
RMM:   2    -0.768348452819E+02   -0.16958E-03   -0.22651E-03  1043   0.208E-01    0.339E-02
RMM:   3    -0.768348607455E+02   -0.15464E-04   -0.42067E-04  1128   0.823E-02    0.244E-02
RMM:   4    -0.768348531714E+02    0.75741E-05   -0.51298E-05   644   0.498E-02
  18 F= -.76834853E+02 E0= -.76834853E+02  d E =-.466737E-03
       N       E                     dE             d eps       ncg     rms          rms(c)
DAV:   1    -0.768344089711E+02    0.45177E-03   -0.51070E-01   768   0.353E+00    0.268E-01
RMM:   2    -0.768356494477E+02   -0.12405E-02   -0.17597E-02  1017   0.598E-01    0.962E-02
RMM:   3    -0.768357587913E+02   -0.10934E-03   -0.29128E-03  1209   0.209E-01    0.737E-02
RMM:   4    -0.768357643527E+02   -0.55613E-05   -0.11011E-03  1142   0.109E-01    0.208E-02
RMM:   5    -0.768357971767E+02   -0.32824E-04   -0.42716E-04   996   0.720E-02    0.101E-02
RMM:   6    -0.768358035808E+02   -0.64041E-05   -0.12483E-04   712   0.542E-02
  19 F= -.76835804E+02 E0= -.76835804E+02  d E =-.141715E-02
       N       E                     dE             d eps       ncg     rms          rms(c)
DAV:   1    -0.768305058549E+02    0.52913E-02   -0.20627E+00   768   0.708E+00    0.535E-01
RMM:   2    -0.768353306256E+02   -0.48248E-02   -0.68353E-02  1017   0.119E+00    0.196E-01
RMM:   3    -0.768356907419E+02   -0.36012E-03   -0.10691E-02  1216   0.402E-01    0.149E-01
RMM:   4    -0.768356614016E+02    0.29340E-04   -0.40215E-03  1177   0.204E-01    0.410E-02
RMM:   5    -0.768357970710E+02   -0.13567E-03   -0.17289E-03  1196   0.131E-01    0.206E-02
RMM:   6    -0.768358600395E+02   -0.62968E-04   -0.83090E-04  1141   0.908E-02    0.806E-03
RMM:   7    -0.768358804743E+02   -0.20435E-04   -0.26080E-04   806   0.650E-02    0.397E-03
RMM:   8    -0.768358883419E+02   -0.78675E-05   -0.11963E-04   739   0.559E-02
  20 F= -.76835888E+02 E0= -.76835888E+02  d E =-.150191E-02
       N       E                     dE             d eps       ncg     rms          rms(c)
DAV:   1    -0.768353467340E+02    0.53374E-03   -0.39225E-01   768   0.308E+00    0.240E-01
RMM:   2    -0.768362233086E+02   -0.87657E-03   -0.12484E-02   996   0.509E-01    0.858E-02
RMM:   3    -0.768361951635E+02    0.28145E-04   -0.14871E-03  1186   0.154E-01    0.677E-02
RMM:   4    -0.768361619052E+02    0.33258E-04   -0.46046E-04  1028   0.689E-02    0.180E-02
RMM:   5    -0.768361580468E+02    0.38585E-05   -0.13308E-05   533   0.443E-02
  21 F= -.76836158E+02 E0= -.76836158E+02  d E =-.177161E-02
       N       E                     dE             d eps       ncg     rms          rms(c)
DAV:   1    -0.768365197714E+02   -0.35787E-03   -0.68665E-03   896   0.368E-01    0.630E-02
RMM:   2    -0.768365357922E+02   -0.16021E-04   -0.40060E-04   931   0.852E-02    0.211E-02
RMM:   3    -0.768365236250E+02    0.12167E-04    0.22956E-06   512   0.355E-02
  22 F= -.76836524E+02 E0= -.76836524E+02  d E =-.365578E-03
       N       E                     dE             d eps       ncg     rms          rms(c)
DAV:   1    -0.768371210405E+02   -0.58525E-03   -0.60613E-02   768   0.110E+00    0.179E-01
RMM:   2    -0.768372213536E+02   -0.10031E-03   -0.31099E-03   967   0.239E-01    0.611E-02
RMM:   3    -0.768371541995E+02    0.67154E-04   -0.32149E-04  1038   0.741E-02    0.385E-02
RMM:   4    -0.768371391752E+02    0.15024E-04   -0.14149E-04   879   0.428E-02
  23 F= -.76837139E+02 E0= -.76837139E+02  d E =-.981128E-03
       N       E                     dE             d eps       ncg     rms          rms(c)
DAV:   1    -0.768374106123E+02   -0.25641E-03   -0.12038E-02   816   0.509E-01    0.912E-02
RMM:   2    -0.768374301850E+02   -0.19573E-04   -0.58105E-04   955   0.104E-01    0.268E-02
RMM:   3    -0.768374090549E+02    0.21130E-04    0.60385E-06   492   0.357E-02    0.179E-02
RMM:   4    -0.768374122053E+02   -0.31505E-05   -0.16343E-04   793   0.419E-02
  24 F= -.76837412E+02 E0= -.76837412E+02  d E =-.273030E-03
       N       E                     dE             d eps       ncg     rms          rms(c)
DAV:   1    -0.768376287133E+02   -0.21966E-03   -0.32284E-02   768   0.832E-01    0.153E-01
RMM:   2    -0.768376922628E+02   -0.63550E-04   -0.15516E-03   955   0.170E-01    0.422E-02
RMM:   3    -0.768376547335E+02    0.37529E-04   -0.16096E-04   941   0.542E-02    0.288E-02
RMM:   4    -0.768376454520E+02    0.92816E-05   -0.92899E-05   785   0.353E-02
  25 F= -.76837645E+02 E0= -.76837645E+02  d E =-.506277E-03
       N       E                     dE             d eps       ncg     rms          rms(c)
DAV:   1    -0.768378089505E+02   -0.15422E-03   -0.19559E-02   768   0.661E-01    0.759E-02
RMM:   2    -0.768378798745E+02   -0.70924E-04   -0.92666E-04   971   0.133E-01    0.236E-02
RMM:   3    -0.768378651725E+02    0.14702E-04   -0.24475E-05   580   0.467E-02
  26 F= -.76837865E+02 E0= -.76837865E+02  d E =-.219721E-03
       N       E                     dE             d eps       ncg     rms          rms(c)
DAV:   1    -0.768377568298E+02    0.12304E-03   -0.10174E-01   768   0.151E+00    0.171E-01
RMM:   2    -0.768381151020E+02   -0.35827E-03   -0.46763E-03   983   0.300E-01    0.541E-02
RMM:   3    -0.768381005377E+02    0.14564E-04   -0.68999E-04  1170   0.102E-01    0.437E-02
RMM:   4    -0.768380979665E+02    0.25713E-05   -0.28852E-04   960   0.536E-02    0.119E-02
RMM:   5    -0.768380938756E+02    0.40909E-05    0.15212E-05   464   0.358E-02
  27 F= -.76838094E+02 E0= -.76838094E+02  d E =-.448424E-03
       N       E                     dE             d eps       ncg     rms          rms(c)
DAV:   1    -0.768381637511E+02   -0.65785E-04   -0.22047E-02   840   0.731E-01    0.629E-02
RMM:   2    -0.768382458985E+02   -0.82147E-04   -0.10593E-03  1052   0.136E-01    0.242E-02
RMM:   3    -0.768382355549E+02    0.10344E-04   -0.66114E-05   599   0.551E-02
  28 F= -.76838236E+02 E0= -.76838236E+02  d E =-.141679E-03
       N       E                     dE             d eps       ncg     rms          rms(c)
DAV:   1    -0.768378681323E+02    0.37777E-03   -0.18544E-01   768   0.213E+00    0.183E-01
RMM:   2    -0.768383823804E+02   -0.51425E-03   -0.72172E-03  1018   0.375E-01    0.689E-02
RMM:   3    -0.768384136190E+02   -0.31239E-04   -0.13276E-03  1212   0.139E-01    0.525E-02
RMM:   4    -0.768384173624E+02   -0.37433E-05   -0.51280E-04  1073   0.724E-02    0.157E-02
RMM:   5    -0.768384157356E+02    0.16268E-05   -0.33125E-05   538   0.480E-02
  29 F= -.76838416E+02 E0= -.76838416E+02  d E =-.321860E-03
       N       E                     dE             d eps       ncg     rms          rms(c)
DAV:   1    -0.768384796119E+02   -0.62250E-04   -0.27453E-02   816   0.830E-01    0.444E-02
RMM:   2    -0.768385753491E+02   -0.95737E-04   -0.11359E-03  1045   0.144E-01    0.181E-02
RMM:   3    -0.768385770283E+02   -0.16793E-05   -0.12338E-04   728   0.617E-02
  30 F= -.76838577E+02 E0= -.76838577E+02  d E =-.161293E-03
       N       E                     dE             d eps       ncg     rms          rms(c)
DAV:   1    -0.768381893995E+02    0.38595E-03   -0.24643E-01   768   0.249E+00    0.123E-01
RMM:   2    -0.768388309271E+02   -0.64153E-03   -0.79191E-03  1015   0.402E-01    0.535E-02
RMM:   3    -0.768389221608E+02   -0.91234E-04   -0.15458E-03  1223   0.151E-01    0.430E-02
RMM:   4    -0.768389408158E+02   -0.18655E-04   -0.57021E-04  1101   0.768E-02    0.152E-02
RMM:   5    -0.768389422236E+02   -0.14079E-05   -0.55616E-05   569   0.522E-02
  31 F= -.76838942E+02 E0= -.76838942E+02  d E =-.526488E-03
       N       E                     dE             d eps       ncg     rms          rms(c)
DAV:   1    -0.768363269793E+02    0.26138E-02   -0.98675E-01   768   0.499E+00    0.255E-01
RMM:   2    -0.768388025937E+02   -0.24756E-02   -0.30704E-02  1007   0.798E-01    0.105E-01
RMM:   3    -0.768391276305E+02   -0.32504E-03   -0.56255E-03  1238   0.289E-01    0.859E-02
RMM:   4    -0.768391758713E+02   -0.48241E-04   -0.19956E-03  1184   0.141E-01    0.313E-02
RMM:   5    -0.768392471331E+02   -0.71262E-04   -0.87250E-04  1140   0.925E-02    0.135E-02
RMM:   6    -0.768392653781E+02   -0.18245E-04   -0.28052E-04   829   0.637E-02    0.433E-03
RMM:   7    -0.768392738806E+02   -0.85025E-05   -0.12697E-04   767   0.535E-02
  32 F= -.76839274E+02 E0= -.76839274E+02  d E =-.858145E-03
       N       E                     dE             d eps       ncg     rms          rms(c)
DAV:   1    -0.768393075067E+02   -0.42129E-04   -0.65570E-02   784   0.129E+00    0.884E-02
RMM:   2    -0.768394376835E+02   -0.13018E-03   -0.22519E-03  1029   0.211E-01    0.464E-02
RMM:   3    -0.768394557419E+02   -0.18058E-04   -0.51910E-04  1182   0.884E-02    0.238E-02
RMM:   4    -0.768394474842E+02    0.82577E-05   -0.16669E-05   542   0.497E-02
  33 F= -.76839447E+02 E0= -.76839447E+02  d E =-.173604E-03
       N       E                     dE             d eps       ncg     rms          rms(c)
DAV:   1    -0.768382104601E+02    0.12453E-02   -0.59088E-01   768   0.387E+00    0.264E-01
RMM:   2    -0.768391321067E+02   -0.92165E-03   -0.17866E-02  1014   0.611E-01    0.134E-01
RMM:   3    -0.768392229901E+02   -0.90883E-04   -0.35272E-03  1226   0.229E-01    0.698E-02
RMM:   4    -0.768392583595E+02   -0.35369E-04   -0.11766E-03  1165   0.110E-01    0.260E-02
RMM:   5    -0.768392971424E+02   -0.38783E-04   -0.49622E-04   981   0.739E-02    0.117E-02
RMM:   6    -0.768393040350E+02   -0.68926E-05   -0.10661E-04   677   0.548E-02
  34 F= -.76839304E+02 E0= -.76839304E+02  d E =-.301544E-04
       N       E                     dE             d eps       ncg     rms          rms(c)
DAV:   1    -0.768393643355E+02   -0.67193E-04   -0.15825E-01   768   0.200E+00    0.141E-01
RMM:   2    -0.768395649176E+02   -0.20058E-03   -0.42975E-03   991   0.304E-01    0.711E-02
RMM:   3    -0.768395408467E+02    0.24071E-04   -0.57157E-04  1107   0.968E-02    0.374E-02
RMM:   4    -0.768395290397E+02    0.11807E-04   -0.86114E-05   713   0.403E-02
  35 F= -.76839529E+02 E0= -.76839529E+02  d E =-.255159E-03
       N       E                     dE             d eps       ncg     rms          rms(c)
DAV:   1    -0.768396749847E+02   -0.13414E-03   -0.90421E-03   880   0.441E-01    0.875E-02
RMM:   2    -0.768396632159E+02    0.11769E-04   -0.57374E-04   989   0.103E-01    0.400E-02
RMM:   3    -0.768396499738E+02    0.13242E-04   -0.11400E-04   838   0.419E-02
  36 F= -.76839650E+02 E0= -.76839650E+02  d E =-.120934E-03
       N       E                     dE             d eps       ncg     rms          rms(c)
DAV:   1    -0.768396542748E+02    0.89411E-05   -0.76384E-04   968   0.129E-01    0.264E-02
RMM:   2    -0.768396487371E+02    0.55378E-05   -0.10521E-05   503   0.348E-02
  37 F= -.76839649E+02 E0= -.76839649E+02  d E =-.119697E-03
