 vasp.5.4.4.18Apr17-6-g9f103f2a35 (build Feb 28 2020 14:15:47) complex          
  
 executed on             LinuxIFC date 2022.08.07  20:47:21
 running on   64 total cores
 distrk:  each k-point on   64 cores,    1 groups
 distr:  one band on NCORES_PER_BAND=  16 cores,    4 groups


--------------------------------------------------------------------------------------------------------


 INCAR:
 POTCAR:    PAW P 26Mar2009                       
 POTCAR:    PAW S 27Mar2009                       
 POTCAR:    PAW Li_sv 10Sep2004                   
 POTCAR:    PAW P 26Mar2009                       
   VRHFIN =P : s2p3                                                             
   LEXCH  = CA                                                                  
   EATOM  =   176.5121 eV,   12.9733 Ry                                         
                                                                                
   TITEL  = PAW P 26Mar2009                                                     
   LULTRA =        F    use ultrasoft PP ?                                      
   IUNSCR =        1    unscreen: 0-lin 1-nonlin 2-no                           
   RPACOR =    1.500    partial core radius                                     
   POMASS =   30.974; ZVAL   =    5.000    mass and valenz                      
   RCORE  =    1.900    outmost cutoff radius                                   
   RWIGS  =    2.330; RWIGS  =    1.233    wigner-seitz radius (au A)           
   ENMAX  =  255.155; ENMIN  =  191.366 eV                                      
   ICORE  =        2    local potential                                         
   LCOR   =        T    correct aug charges                                     
   LPAW   =        T    paw PP                                                  
   EAUG   =  342.924                                                            
   DEXC   =    0.000                                                            
   RMAX   =    1.935    core radius for proj-oper                               
   RAUG   =    1.300    factor for augmentation sphere                          
   RDEP   =    1.931    radius for radial grids                                 
   RDEPT  =    1.780    core radius for aug-charge                              
                                                                                
   Atomic configuration                                                         
    6 entries                                                                   
     n  l   j            E        occ.                                          
     1  0  0.50     -2072.7761   2.0000                                         
     2  0  0.50      -172.9483   2.0000                                         
     2  1  1.50      -124.4644   6.0000                                         
     3  0  0.50       -14.0086   2.0000                                         
     3  1  0.50        -5.6037   3.0000                                         
     3  2  1.50        -6.8029   0.0000                                         
   Description                                                                  
     l       E           TYP  RCUT    TYP  RCUT                                 
     0    -14.0086211     23  1.900                                             
     0    -11.8189335     23  1.900                                             
     1     -5.6037292     23  1.900                                             
     1     -0.3527308     23  1.900                                             
     2     -6.8029130     23  1.900                                             
  local pseudopotential read in
  partial core-charges read in
  partial kinetic energy density read in
  atomic valenz-charges read in
  non local Contribution for L=           0  read in
    real space projection operators read in
  non local Contribution for L=           0  read in
    real space projection operators read in
  non local Contribution for L=           1  read in
    real space projection operators read in
  non local Contribution for L=           1  read in
    real space projection operators read in
    PAW grid and wavefunctions read in
 
   number of l-projection  operators is LMAX  =           4
   number of lm-projection operators is LMMAX =           8
 
 POTCAR:    PAW S 27Mar2009                       
   VRHFIN =S : s2p4                                                             
   LEXCH  = CA                                                                  
   EATOM  =   277.3745 eV,   20.3864 Ry                                         
                                                                                
   TITEL  = PAW S 27Mar2009                                                     
   LULTRA =        F    use ultrasoft PP ?                                      
   IUNSCR =        1    unscreen: 0-lin 1-nonlin 2-no                           
   RPACOR =    1.500    partial core radius                                     
   POMASS =   32.066; ZVAL   =    6.000    mass and valenz                      
   RCORE  =    1.900    outmost cutoff radius                                   
   RWIGS  =    2.200; RWIGS  =    1.164    wigner-seitz radius (au A)           
   ENMAX  =  258.602; ENMIN  =  193.952 eV                                      
   ICORE  =        2    local potential                                         
   LCOR   =        T    correct aug charges                                     
   LPAW   =        T    paw PP                                                  
   EAUG   =  335.092                                                            
   DEXC   =    0.000                                                            
   RMAX   =    1.942    core radius for proj-oper                               
   RAUG   =    1.300    factor for augmentation sphere                          
   RDEP   =    1.954    radius for radial grids                                 
   RDEPT  =    1.744    core radius for aug-charge                              
                                                                                
   Atomic configuration                                                         
    6 entries                                                                   
     n  l   j            E        occ.                                          
     1  0  0.50     -2393.1495   2.0000                                         
     2  0  0.50      -210.5411   2.0000                                         
     2  1  1.50      -156.4410   6.0000                                         
     3  0  0.50       -17.2664   2.0000                                         
     3  1  0.50        -7.1129   4.0000                                         
     3  2  1.50        -8.1635   0.0000                                         
   Description                                                                  
     l       E           TYP  RCUT    TYP  RCUT                                 
     0    -17.2664422     23  1.900                                             
     0    -15.8420823     23  1.900                                             
     1     -7.1129072     23  1.900                                             
     1     -2.8398274     23  1.900                                             
     2     -8.1634956     23  1.900                                             
  local pseudopotential read in
  partial core-charges read in
  partial kinetic energy density read in
  atomic valenz-charges read in
  non local Contribution for L=           0  read in
    real space projection operators read in
  non local Contribution for L=           0  read in
    real space projection operators read in
  non local Contribution for L=           1  read in
    real space projection operators read in
  non local Contribution for L=           1  read in
    real space projection operators read in
    PAW grid and wavefunctions read in
 
   number of l-projection  operators is LMAX  =           4
   number of lm-projection operators is LMMAX =           8
 
 POTCAR:    PAW Li_sv 10Sep2004                   
   VRHFIN =Li: 1s2s                                                             
   LEXCH  = CA                                                                  
   EATOM  =   199.5738 eV,   14.6683 Ry                                         
                                                                                
   TITEL  = PAW Li_sv 10Sep2004                                                 
   LULTRA =        F    use ultrasoft PP ?                                      
   IUNSCR =        0    unscreen: 0-lin 1-nonlin 2-no                           
   RPACOR =    0.000    partial core radius                                     
   POMASS =    7.010; ZVAL   =    3.000    mass and valenz                      
   RCORE  =    1.700    outmost cutoff radius                                   
   RWIGS  =    2.050; RWIGS  =    1.085    wigner-seitz radius (au A)           
   ENMAX  =  498.387; ENMIN  =  373.790 eV                                      
   ICORE  =        2    local potential                                         
   LCOR   =        T    correct aug charges                                     
   LPAW   =        T    paw PP                                                  
   EAUG   =  628.945                                                            
   RMAX   =    1.732    core radius for proj-oper                               
   RAUG   =    1.300    factor for augmentation sphere                          
   RDEP   =    1.728    radius for radial grids                                 
   RDEPT  =    1.329    core radius for aug-charge                              
                                                                                
   Atomic configuration                                                         
    4 entries                                                                   
     n  l   j            E        occ.                                          
     1  0  0.50       -51.0884   2.0000                                         
     2  0  0.50        -2.8766   1.0000                                         
     2  1  0.50        -2.8708   0.0000                                         
     3  2  1.50        -1.3606   0.0000                                         
   Description                                                                  
     l       E           TYP  RCUT    TYP  RCUT                                 
     0    -51.0884324     23  1.400                                             
     0     -2.8766458     23  1.700                                             
     1     -2.8708293     23  1.400                                             
     2     -1.3605826     23  1.400                                             
  local pseudopotential read in
  atomic valenz-charges read in
  non local Contribution for L=           0  read in
    real space projection operators read in
  non local Contribution for L=           0  read in
    real space projection operators read in
  non local Contribution for L=           1  read in
    real space projection operators read in
    PAW grid and wavefunctions read in
 
   number of l-projection  operators is LMAX  =           3
   number of lm-projection operators is LMMAX =           5
 
 Optimization of the real space projectors (new method)

 maximal supplied QI-value         = 19.84
 optimisation between [QCUT,QGAM] = [ 10.32, 20.83] = [ 29.81,121.55] Ry 
 Optimized for a Real-space Cutoff    1.39 Angstroem

   l    n(q)    QCUT    max X(q) W(low)/X(q) W(high)/X(q)  e(spline) 
   0      9    10.318   158.476    0.64E-04    0.80E-04    0.60E-07
   0      9    10.318   128.097    0.63E-04    0.79E-04    0.60E-07
   1      8    10.318    73.217    0.18E-03    0.19E-03    0.20E-06
   1      8    10.318    48.248    0.18E-03    0.19E-03    0.19E-06
 Optimization of the real space projectors (new method)

 maximal supplied QI-value         = 19.84
 optimisation between [QCUT,QGAM] = [ 10.32, 20.83] = [ 29.81,121.55] Ry 
 Optimized for a Real-space Cutoff    1.39 Angstroem

   l    n(q)    QCUT    max X(q) W(low)/X(q) W(high)/X(q)  e(spline) 
   0      9    10.318   180.455    0.73E-04    0.81E-04    0.62E-07
   0      9    10.318   157.733    0.72E-04    0.81E-04    0.62E-07
   1      8    10.318    66.201    0.18E-03    0.20E-03    0.20E-06
   1      8    10.318    49.617    0.18E-03    0.20E-03    0.20E-06
 Optimization of the real space projectors (new method)

 maximal supplied QI-value         = 22.11
 optimisation between [QCUT,QGAM] = [ 10.39, 20.78] = [ 30.24,120.96] Ry 
 Optimized for a Real-space Cutoff    1.20 Angstroem

   l    n(q)    QCUT    max X(q) W(low)/X(q) W(high)/X(q)  e(spline) 
   0      7    10.392    10.443    0.77E-04    0.41E-05    0.30E-07
   0      7    10.392     8.514    0.20E-03    0.36E-04    0.67E-07
   1      7    10.392     5.406    0.20E-03    0.20E-03    0.12E-06
  PAW P 26Mar2009                       :
 energy of atom  1       EATOM= -176.5121
 kinetic energy error for atom=    0.0021 (will be added to EATOM!!)
  PAW S 27Mar2009                       :
 energy of atom  2       EATOM= -277.3745
 kinetic energy error for atom=    0.0041 (will be added to EATOM!!)
  PAW Li_sv 10Sep2004                   :
 energy of atom  3       EATOM= -199.5738
 kinetic energy error for atom=    0.0564 (will be added to EATOM!!)
 
 
 POSCAR: Good luck                               
  positions in cartesian coordinates
  No initial velocities read in
 exchange correlation table for  LEXCH =        2
   RHO(1)=    0.500       N(1)  =     2000
   RHO(2)=  100.500       N(2)  =     4000
 


--------------------------------------------------------------------------------------------------------


 ion  position               nearest neighbor table
   1  0.000  0.754  0.275-   9 2.00   7 2.05   6 2.06   3 2.06
   2  0.500  0.246  0.775-  10 2.00   8 2.05   4 2.06   5 2.06
   3  0.231  0.542  0.247-   1 2.06  14 2.31  13 2.50  12 2.59  11 2.62
   4  0.269  0.458  0.747-   2 2.06  13 2.31  14 2.50  11 2.59  12 2.62
   5  0.731  0.458  0.747-   2 2.06  16 2.31  15 2.50  11 2.59  12 2.62
   6  0.769  0.542  0.247-   1 2.06  15 2.31  16 2.50  12 2.59  11 2.62
   7  0.000  0.940  0.021-   1 2.05  16 2.27  13 2.27  11 2.49
   8  0.500  0.060  0.521-   2 2.05  14 2.27  15 2.27  12 2.49
   9  0.000  0.943  0.519-   1 2.00  15 2.26  14 2.26
  10  0.500  0.057  0.019-   2 2.00  13 2.26  16 2.26
  11  0.000  0.376  0.986-   7 2.49   5 2.59   4 2.59   6 2.62   3 2.62
  12  0.500  0.624  0.486-   8 2.49   3 2.59   6 2.59   4 2.62   5 2.62
  13  0.283  0.781  0.950-  10 2.26   7 2.27   4 2.31   3 2.50
  14  0.217  0.219  0.450-   9 2.26   8 2.27   3 2.31   4 2.50
  15  0.783  0.219  0.450-   9 2.26   8 2.27   6 2.31   5 2.50
  16  0.717  0.781  0.950-  10 2.26   7 2.27   5 2.31   6 2.50
 
  LATTYP: Found a simple orthorhombic cell.
 ALAT       =     5.6824275100
 B/A-ratio  =     1.2189078024
 C/A-ratio  =     1.2611752619
  
  Lattice vectors:
  
 A1 = (   0.0000000000,   5.6824275100,   0.0000000000)
 A2 = (   0.0000000000,   0.0000000000,  -6.9263552283)
 A3 = (  -7.1665370034,   0.0000000000,   0.0000000000)


Analysis of symmetry for initial positions (statically):
=====================================================================
 Subroutine PRICEL returns:
 Original cell was already a primitive cell.
 

 Routine SETGRP: Setting up the symmetry group for a 
 simple orthorhombic supercell.


 Subroutine GETGRP returns: Found  4 space group operations
 (whereof  2 operations were pure point group operations)
 out of a pool of  8 trial point group operations.


The static configuration has the point symmetry C_1h.
 The point group associated with its full space group is C_2v.


Analysis of symmetry for dynamics (positions and initial velocities):
=====================================================================
 Subroutine PRICEL returns:
 Original cell was already a primitive cell.
 

 Routine SETGRP: Setting up the symmetry group for a 
 simple orthorhombic supercell.


 Subroutine GETGRP returns: Found  4 space group operations
 (whereof  2 operations were pure point group operations)
 out of a pool of  8 trial point group operations.


The dynamic configuration has the point symmetry C_1h.
 The point group associated with its full space group is C_2v.


 Subroutine INISYM returns: Found  4 space group operations
 (whereof  2 operations are pure point group operations),
 and found     1 'primitive' translations

 
 
 KPOINTS: Automatic mesh                          

Automatic generation of k-mesh.
Space group operators:
 irot       det(A)        alpha          n_x          n_y          n_z        tau_x        tau_y        tau_z
    1     1.000000     0.000001     1.000000     0.000000     0.000000     0.000000     0.000000     0.000000
    2    -1.000000   179.999999     1.000000     0.000000     0.000000     0.000000     0.000000     0.000000
    3     1.000000   180.000000     0.000000     0.000000     1.000000    -0.500000     0.000000    -0.500000
    4    -1.000000   180.000000     0.000000     1.000000     0.000000    -0.500000     0.000000    -0.500000
 
 Subroutine IBZKPT returns following result:
 ===========================================
 
 Found      8 irreducible k-points:
 
 Following reciprocal coordinates:
            Coordinates               Weight
  0.125000  0.125000  0.125000      8.000000
  0.375000  0.125000  0.125000      8.000000
  0.125000  0.375000  0.125000      8.000000
  0.375000  0.375000  0.125000      8.000000
  0.125000  0.125000  0.375000      8.000000
  0.375000  0.125000  0.375000      8.000000
  0.125000  0.375000  0.375000      8.000000
  0.375000  0.375000  0.375000      8.000000
 
 Following cartesian coordinates:
            Coordinates               Weight
  0.017442  0.021998  0.018047      8.000000
  0.052327  0.021998  0.018047      8.000000
  0.017442  0.065993  0.018047      8.000000
  0.052327  0.065993  0.018047      8.000000
  0.017442  0.021998  0.054141      8.000000
  0.052327  0.021998  0.054141      8.000000
  0.017442  0.065993  0.054141      8.000000
  0.052327  0.065993  0.054141      8.000000
 
 TETIRR: Found    140 inequivalent tetrahedra from      384


--------------------------------------------------------------------------------------------------------




 Dimension of arrays:
   k-points           NKPTS =      8   k-points in BZ     NKDIM =      8   number of bands    NBANDS=     48
   number of dos      NEDOS =    301   number of ions     NIONS =     16
   non local maximal  LDIM  =      4   non local SUM 2l+1 LMDIM =      8
   total plane-waves  NPLWV =  92160
   max r-space proj   IRMAX =   3707   max aug-charges    IRDMAX=  10492
   dimension x,y,z NGX =    48 NGY =   40 NGZ =   48
   dimension x,y,z NGXF=    96 NGYF=   80 NGZF=   96
   support grid    NGXF=    96 NGYF=   80 NGZF=   96
   ions per type =               2   8   6
   NGX,Y,Z   is equivalent  to a cutoff of  11.13, 11.70, 11.52 a.u.
   NGXF,Y,Z  is equivalent  to a cutoff of  22.27, 23.40, 23.04 a.u.

 SYSTEM =  unknown system                          
 POSCAR =  Good luck                               

 Startparameter for this run:
   NWRITE =      2    write-flag & timer
   PREC   = accura    normal or accurate (medium, high low for compatibility)
   ISTART =      0    job   : 0-new  1-cont  2-samecut
   ICHARG =      2    charge: 1-file 2-atom 10-const
   ISPIN  =      1    spin polarized calculation?
   LNONCOLLINEAR =      F non collinear calculations
   LSORBIT =      F    spin-orbit coupling
   INIWAV =      1    electr: 0-lowe 1-rand  2-diag
   LASPH  =      F    aspherical Exc in radial PAW
   METAGGA=      F    non-selfconsistent MetaGGA calc.

 Electronic Relaxation 1
   ENCUT  =  420.0 eV  30.87 Ry    5.56 a.u.  11.98  9.50 11.57*2*pi/ulx,y,z
   ENINI  =  420.0     initial cutoff
   ENAUG  =  628.9 eV  augmentation charge cutoff
   NELM   =    100;   NELMIN=  2; NELMDL= -5     # of ELM steps 
   EDIFF  = 0.2E-04   stopping-criterion for ELM
   LREAL  =      T    real-space projection
   NLSPLINE    = F    spline interpolate recip. space projectors
   LCOMPAT=      F    compatible to vasp.4.4
   GGA_COMPAT  = T    GGA compatible to vasp.4.4-vasp.4.6
   LMAXPAW     = -100 max onsite density
   LMAXMIX     =    2 max onsite mixed and CHGCAR
   VOSKOWN=      0    Vosko Wilk Nusair interpolation
   ROPT   =   -0.00025  -0.00025  -0.00025
 Ionic relaxation
   EDIFFG = 0.2E-03   stopping-criterion for IOM
   NSW    =    100    number of steps for IOM
   NBLOCK =      1;   KBLOCK =    100    inner block; outer block 
   IBRION =      2    ionic relax: 0-MD 1-quasi-New 2-CG
   NFREE  =      1    steps in history (QN), initial steepest desc. (CG)
   ISIF   =      3    stress and relaxation
   IWAVPR =     11    prediction:  0-non 1-charg 2-wave 3-comb
   ISYM   =      2    0-nonsym 1-usesym 2-fastsym
   LCORR  =      T    Harris-Foulkes like correction to forces

   POTIM  = 0.5000    time-step for ionic-motion
   TEIN   =    0.0    initial temperature
   TEBEG  =    0.0;   TEEND  =   0.0 temperature during run
   SMASS  =  -3.00    Nose mass-parameter (am)
   estimated Nose-frequenzy (Omega)   =  0.10E-29 period in steps =****** mass=  -0.117E-26a.u.
   SCALEE = 1.0000    scale energy and forces
   NPACO  =    256;   APACO  = 16.0  distance and # of slots for P.C.
   PSTRESS=    0.0 pullay stress

  Mass of Ions in am
   POMASS =  30.97 32.07  7.01
  Ionic Valenz
   ZVAL   =   5.00  6.00  3.00
  Atomic Wigner-Seitz radii
   RWIGS  =  -1.00 -1.00 -1.00
  virtual crystal weights 
   VCA    =   1.00  1.00  1.00
   NELECT =      76.0000    total number of electrons
   NUPDOWN=      -1.0000    fix difference up-down

 DOS related values:
   EMIN   =  10.00;   EMAX   =-10.00  energy-range for DOS
   EFERMI =   0.00
   ISMEAR =    -5;   SIGMA  =   0.20  broadening in eV -4-tet -1-fermi 0-gaus

 Electronic relaxation 2 (details)
   IALGO  =     68    algorithm
   LDIAG  =      T    sub-space diagonalisation (order eigenvalues)
   LSUBROT=      F    optimize rotation matrix (better conditioning)
   TURBO    =      0    0=normal 1=particle mesh
   IRESTART =      0    0=no restart 2=restart with 2 vectors
   NREBOOT  =      0    no. of reboots
   NMIN     =      0    reboot dimension
   EREF     =   0.00    reference energy to select bands
   IMIX   =      4    mixing-type and parameters
     AMIX     =   0.40;   BMIX     =  1.00
     AMIX_MAG =   1.60;   BMIX_MAG =  1.00
     AMIN     =   0.10
     WC   =   100.;   INIMIX=   1;  MIXPRE=   1;  MAXMIX= -45

 Intra band minimization:
   WEIMIN = 0.0010     energy-eigenvalue tresh-hold
   EBREAK =  0.10E-06  absolut break condition
   DEPER  =   0.30     relativ break condition  

   TIME   =   0.40     timestep for ELM

  volume/ion in A,a.u.               =      17.63       118.97
  Fermi-wavevector in a.u.,A,eV,Ry     =   1.057377  1.998154 15.211953  1.118047
  Thomas-Fermi vector in A             =   2.192648
 
 Write flags
   LWAVE        =      F    write WAVECAR
   LDOWNSAMPLE  =      F    k-point downsampling of WAVECAR
   LCHARG       =      F    write CHGCAR
   LVTOT        =      F    write LOCPOT, total local potential
   LVHAR        =      F    write LOCPOT, Hartree potential only
   LELF         =      F    write electronic localiz. function (ELF)
   LORBIT       =      0    0 simple, 1 ext, 2 COOP (PROOUT), +10 PAW based schemes


 Dipole corrections
   LMONO  =      F    monopole corrections only (constant potential shift)
   LDIPOL =      F    correct potential (dipole corrections)
   IDIPOL =      0    1-x, 2-y, 3-z, 4-all directions 
   EPSILON=  1.0000000 bulk dielectric constant

 Exchange correlation treatment:
   GGA     =    --    GGA type
   LEXCH   =     2    internal setting for exchange type
   VOSKOWN=      0    Vosko Wilk Nusair interpolation
   LHFCALC =     F    Hartree Fock is set to
   LHFONE  =     F    Hartree Fock one center treatment
   AEXX    =    0.0000 exact exchange contribution

 Linear response parameters
   LEPSILON=     F    determine dielectric tensor
   LRPA    =     F    only Hartree local field effects (RPA)
   LNABLA  =     F    use nabla operator in PAW spheres
   LVEL    =     F    velocity operator in full k-point grid
   LINTERFAST=   F  fast interpolation
   KINTER  =     0    interpolate to denser k-point grid
   CSHIFT  =0.1000    complex shift for real part using Kramers Kronig
   OMEGAMAX=  -1.0    maximum frequency
   DEG_THRESHOLD= 0.2000000E-02 threshold for treating states as degnerate
   RTIME   =   -0.100 relaxation time in fs
  (WPLASMAI=    0.000 imaginary part of plasma frequency in eV, 0.658/RTIME)
   DFIELD  = 0.0000000 0.0000000 0.0000000 field for delta impulse in time
 
 Orbital magnetization related:
   ORBITALMAG=     F  switch on orbital magnetization
   LCHIMAG   =     F  perturbation theory with respect to B field
   DQ        =  0.001000  dq finite difference perturbation B field
   LLRAUG    =     F  two centre corrections for induced B field



--------------------------------------------------------------------------------------------------------


 conjugate gradient relaxation of ions
 charge density and potential will be updated during run
 non-spin polarized calculation
 RMM-DIIS sequential band-by-band and
  variant of blocked Davidson during initial phase
 perform sub-space diagonalisation
    before iterative eigenvector-optimisation
 modified Broyden-mixing scheme, WC =      100.0
 initial mixing is a Kerker type mixing with AMIX =  0.4000 and BMIX =      1.0000
 Hartree-type preconditioning will be used
 using additional bands           10
 real space projection scheme for non local part
 use partial core corrections
 calculate Harris-corrections to forces 
   (improved forces if not selfconsistent)
 use of overlap-Matrix (Vanderbilt PP)
 Fermi weights with tetrahedron method with Bloechl corrections


--------------------------------------------------------------------------------------------------------


  energy-cutoff  :      420.00
  volume of cell :      282.06
      direct lattice vectors                 reciprocal lattice vectors
     7.166537003  0.000000000  0.000000000     0.139537408  0.000000000  0.000000000
     0.000000000  5.682427510  0.000000000     0.000000000  0.175981127  0.000000000
     0.000000000  0.000000000  6.926355228     0.000000000  0.000000000  0.144376078

  length of vectors
     7.166537003  5.682427510  6.926355228     0.139537408  0.175981127  0.144376078


 
 k-points in units of 2pi/SCALE and weight: Automatic mesh                          
   0.01744218  0.02199764  0.01804701       0.125
   0.05232653  0.02199764  0.01804701       0.125
   0.01744218  0.06599292  0.01804701       0.125
   0.05232653  0.06599292  0.01804701       0.125
   0.01744218  0.02199764  0.05414103       0.125
   0.05232653  0.02199764  0.05414103       0.125
   0.01744218  0.06599292  0.05414103       0.125
   0.05232653  0.06599292  0.05414103       0.125
 
 k-points in reciprocal lattice and weights: Automatic mesh                          
   0.12500000  0.12500000  0.12500000       0.125
   0.37500000  0.12500000  0.12500000       0.125
   0.12500000  0.37500000  0.12500000       0.125
   0.37500000  0.37500000  0.12500000       0.125
   0.12500000  0.12500000  0.37500000       0.125
   0.37500000  0.12500000  0.37500000       0.125
   0.12500000  0.37500000  0.37500000       0.125
   0.37500000  0.37500000  0.37500000       0.125
 
 position of ions in fractional coordinates (direct lattice) 
   0.00000000  0.75355612  0.27501048
   0.50000000  0.24644388  0.77501048
   0.23094519  0.54151807  0.24709611
   0.26905481  0.45848193  0.74709611
   0.73094519  0.45848193  0.74709611
   0.76905481  0.54151807  0.24709611
   0.00000000  0.93980624  0.02130888
   0.50000000  0.06019376  0.52130888
   0.00000000  0.94255803  0.51891291
   0.50000000  0.05744197  0.01891291
   0.00000000  0.37599568  0.98640183
   0.50000000  0.62400432  0.48640183
   0.28297476  0.78102388  0.94981368
   0.21702524  0.21897612  0.44981368
   0.78297476  0.21897612  0.44981368
   0.71702524  0.78102388  0.94981368
 
 position of ions in cartesian coordinates  (Angst):
   0.00000000  4.28202803  1.90482028
   3.58326850  1.40039948  5.36799790
   1.65507723  3.07713718  1.71147544
   1.92819127  2.60529033  5.17465305
   5.23834574  2.60529033  5.17465305
   5.51145977  3.07713718  1.71147544
   0.00000000  5.34038081  0.14759289
   3.58326850  0.34204670  3.61077050
   0.00000000  5.35601766  3.59417514
   3.58326850  0.32640985  0.13099753
   0.00000000  2.13656817  6.83216950
   3.58326850  3.54585934  3.36899189
   2.02794907  4.43811157  6.57874697
   1.55531943  1.24431594  3.11556936
   5.61121757  1.24431594  3.11556936
   5.13858793  4.43811157  6.57874697
 


--------------------------------------------------------------------------------------------------------


 k-point  1 :   0.1250 0.1250 0.1250  plane waves:    5522
 k-point  2 :   0.3750 0.1250 0.1250  plane waves:    5515
 k-point  3 :   0.1250 0.3750 0.1250  plane waves:    5505
 k-point  4 :   0.3750 0.3750 0.1250  plane waves:    5517
 k-point  5 :   0.1250 0.1250 0.3750  plane waves:    5519
 k-point  6 :   0.3750 0.1250 0.3750  plane waves:    5523
 k-point  7 :   0.1250 0.3750 0.3750  plane waves:    5495
 k-point  8 :   0.3750 0.3750 0.3750  plane waves:    5507

 maximum and minimum number of plane-waves per node :       358      329

 maximum number of plane-waves:      5523
 maximum index in each direction: 
   IXMAX=   11   IYMAX=    9   IZMAX=   11
   IXMIN=  -12   IYMIN=   -9   IZMIN=  -11


 real space projection operators:
  total allocation   :       2750.56 KBytes
  max/ min on nodes  :        175.39        169.51


 parallel 3D FFT for wavefunctions:
    minimum data exchange during FFTs selected (reduces bandwidth)
 parallel 3D FFT for charge:
    minimum data exchange during FFTs selected (reduces bandwidth)


 total amount of memory used by VASP MPI-rank0    33674. kBytes
=======================================================================

   base      :      30000. kBytes
   nonlr-proj:       1208. kBytes
   fftplans  :        681. kBytes
   grid      :       1230. kBytes
   one-center:          3. kBytes
   wavefun   :        552. kBytes
 
     INWAV:  cpu time    0.0000: real time    0.0000
 Broyden mixing: mesh for mixing (old mesh)
   NGX = 23   NGY = 19   NGZ = 23
  (NGX  = 96   NGY  = 80   NGZ  = 96)
  gives a total of  10051 points

 initial charge density was supplied:
 charge density of overlapping atoms calculated
 number of electron      76.0000000 magnetization 
 keeping initial charge density in first step


--------------------------------------------------------------------------------------------------------


 Maximum index for non-local projection operator          290
 Maximum index for augmentation-charges          579 (set IRDMAX)


--------------------------------------------------------------------------------------------------------


 First call to EWALD:  gamma=   0.270
 Maximum number of real-space cells 3x 3x 3
 Maximum number of reciprocal cells 3x 2x 3

    FEWALD:  cpu time    0.0019: real time    0.0019


--------------------------------------- Iteration      1(   1)  ---------------------------------------


    POTLOK:  cpu time    0.0058: real time    0.0085
    SETDIJ:  cpu time    0.0039: real time    0.0048
     EDDAV:  cpu time    0.1933: real time    0.2036
 BZINTS: Fermi energy: 15.191112; 76.000000 electrons
         Band energy:-119.758531;  BLOECHL correction: -0.062018
       DOS:  cpu time    0.0081: real time    0.0088
    --------------------------------------------
      LOOP:  cpu time    0.2111: real time    0.2257

 eigenvalue-minimisations  :   768
 total energy-change (2. order) : 0.4913214E+03  (-0.2813823E+04)
 number of electron      76.0000000 magnetization 
 augmentation part       76.0000000 magnetization 

 Free energy of the ion-electron system (eV)
  ---------------------------------------------------
  alpha Z        PSCENC =        69.95909506
  Ewald energy   TEWEN  =     -2741.94693423
  -Hartree energ DENC   =      -621.32517720
  -exchange      EXHF   =         0.00000000
  -V(xc)+E(xc)   XCENC  =       182.20289015
  PAW double counting   =      2494.22442938    -2541.12215007
  entropy T*S    EENTRO =         0.00000000
  eigenvalues    EBANDS =      -119.75853088
  atomic energy  EATOM  =      3769.08782378
  Solvation  Ediel_sol  =         0.00000000
  ---------------------------------------------------
  free energy    TOTEN  =       491.32144600 eV

  energy without entropy =      491.32144600  energy(sigma->0) =      491.32144600


--------------------------------------------------------------------------------------------------------




--------------------------------------- Iteration      1(   2)  ---------------------------------------


     EDDAV:  cpu time    0.1929: real time    0.1932
 BZINTS: Fermi energy:  4.958195; 76.000000 electrons
         Band energy:-622.730538;  BLOECHL correction:  0.000000
       DOS:  cpu time    0.0015: real time    0.0015
    --------------------------------------------
      LOOP:  cpu time    0.1944: real time    0.1947

 eigenvalue-minimisations  :   912
 total energy-change (2. order) :-0.5029720E+03  (-0.4795572E+03)
 number of electron      76.0000000 magnetization 
 augmentation part       76.0000000 magnetization 

 Free energy of the ion-electron system (eV)
  ---------------------------------------------------
  alpha Z        PSCENC =        69.95909506
  Ewald energy   TEWEN  =     -2741.94693423
  -Hartree energ DENC   =      -621.32517720
  -exchange      EXHF   =         0.00000000
  -V(xc)+E(xc)   XCENC  =       182.20289015
  PAW double counting   =      2494.22442938    -2541.12215007
  entropy T*S    EENTRO =         0.00000000
  eigenvalues    EBANDS =      -622.73053768
  atomic energy  EATOM  =      3769.08782378
  Solvation  Ediel_sol  =         0.00000000
  ---------------------------------------------------
  free energy    TOTEN  =       -11.65056081 eV

  energy without entropy =      -11.65056081  energy(sigma->0) =      -11.65056081


--------------------------------------------------------------------------------------------------------




--------------------------------------- Iteration      1(   3)  ---------------------------------------


     EDDAV:  cpu time    0.2130: real time    0.2133
 BZINTS: Fermi energy:  2.112538; 76.000000 electrons
         Band energy:-682.837293;  BLOECHL correction:  0.000000
       DOS:  cpu time    0.0013: real time    0.0013
    --------------------------------------------
      LOOP:  cpu time    0.2142: real time    0.2145

 eigenvalue-minimisations  :  1056
 total energy-change (2. order) :-0.6010676E+02  (-0.5959930E+02)
 number of electron      76.0000000 magnetization 
 augmentation part       76.0000000 magnetization 

 Free energy of the ion-electron system (eV)
  ---------------------------------------------------
  alpha Z        PSCENC =        69.95909506
  Ewald energy   TEWEN  =     -2741.94693423
  -Hartree energ DENC   =      -621.32517720
  -exchange      EXHF   =         0.00000000
  -V(xc)+E(xc)   XCENC  =       182.20289015
  PAW double counting   =      2494.22442938    -2541.12215007
  entropy T*S    EENTRO =         0.00000000
  eigenvalues    EBANDS =      -682.83729328
  atomic energy  EATOM  =      3769.08782378
  Solvation  Ediel_sol  =         0.00000000
  ---------------------------------------------------
  free energy    TOTEN  =       -71.75731641 eV

  energy without entropy =      -71.75731641  energy(sigma->0) =      -71.75731641


--------------------------------------------------------------------------------------------------------




--------------------------------------- Iteration      1(   4)  ---------------------------------------


     EDDAV:  cpu time    0.2635: real time    0.2639
 BZINTS: Fermi energy:  2.045955; 76.000000 electrons
         Band energy:-689.706887;  BLOECHL correction:  0.000000
       DOS:  cpu time    0.0014: real time    0.0014
    --------------------------------------------
      LOOP:  cpu time    0.2650: real time    0.2653

 eigenvalue-minimisations  :  1408
 total energy-change (2. order) :-0.6869594E+01  (-0.6846834E+01)
 number of electron      76.0000000 magnetization 
 augmentation part       76.0000000 magnetization 

 Free energy of the ion-electron system (eV)
  ---------------------------------------------------
  alpha Z        PSCENC =        69.95909506
  Ewald energy   TEWEN  =     -2741.94693423
  -Hartree energ DENC   =      -621.32517720
  -exchange      EXHF   =         0.00000000
  -V(xc)+E(xc)   XCENC  =       182.20289015
  PAW double counting   =      2494.22442938    -2541.12215007
  entropy T*S    EENTRO =         0.00000000
  eigenvalues    EBANDS =      -689.70688713
  atomic energy  EATOM  =      3769.08782378
  Solvation  Ediel_sol  =         0.00000000
  ---------------------------------------------------
  free energy    TOTEN  =       -78.62691026 eV

  energy without entropy =      -78.62691026  energy(sigma->0) =      -78.62691026


--------------------------------------------------------------------------------------------------------




--------------------------------------- Iteration      1(   5)  ---------------------------------------


     EDDAV:  cpu time    0.2275: real time    0.2278
 BZINTS: Fermi energy:  2.026106; 76.000000 electrons
         Band energy:-690.527687;  BLOECHL correction:  0.000000
       DOS:  cpu time    0.0012: real time    0.0012
    CHARGE:  cpu time    0.0178: real time    0.0179
    MIXING:  cpu time    0.0005: real time    0.0015
    --------------------------------------------
      LOOP:  cpu time    0.2471: real time    0.2484

 eigenvalue-minimisations  :  1136
 total energy-change (2. order) :-0.8208003E+00  (-0.8206428E+00)
 number of electron      76.0000005 magnetization 
 augmentation part       -1.8474022 magnetization 

 Broyden mixing:
  rms(total) = 0.23385E+01    rms(broyden)= 0.23380E+01
  rms(prec ) = 0.25966E+01
  weight for this iteration     100.00

 Free energy of the ion-electron system (eV)
  ---------------------------------------------------
  alpha Z        PSCENC =        69.95909506
  Ewald energy   TEWEN  =     -2741.94693423
  -Hartree energ DENC   =      -621.32517720
  -exchange      EXHF   =         0.00000000
  -V(xc)+E(xc)   XCENC  =       182.20289015
  PAW double counting   =      2494.22442938    -2541.12215007
  entropy T*S    EENTRO =         0.00000000
  eigenvalues    EBANDS =      -690.52768743
  atomic energy  EATOM  =      3769.08782378
  Solvation  Ediel_sol  =         0.00000000
  ---------------------------------------------------
  free energy    TOTEN  =       -79.44771056 eV

  energy without entropy =      -79.44771056  energy(sigma->0) =      -79.44771056


--------------------------------------------------------------------------------------------------------




--------------------------------------- Iteration      1(   6)  ---------------------------------------


    POTLOK:  cpu time    0.0044: real time    0.0047
    SETDIJ:  cpu time    0.0012: real time    0.0012
    EDDIAG:  cpu time    0.0502: real time    0.0514
  RMM-DIIS:  cpu time    0.0795: real time    0.0795
    ORTHCH:  cpu time    0.0069: real time    0.0069
 BZINTS: Fermi energy:  2.609031; 76.000000 electrons
         Band energy:-671.653327;  BLOECHL correction:  0.000000
       DOS:  cpu time    0.0015: real time    0.0015
    CHARGE:  cpu time    0.0166: real time    0.0167
    MIXING:  cpu time    0.0005: real time    0.0005
    --------------------------------------------
      LOOP:  cpu time    0.1608: real time    0.1623

 eigenvalue-minimisations  :   808
 total energy-change (2. order) : 0.2224708E+01  (-0.5624959E+00)
 number of electron      76.0000005 magnetization 
 augmentation part       -1.7836790 magnetization 

 Broyden mixing:
  rms(total) = 0.15102E+01    rms(broyden)= 0.15102E+01
  rms(prec ) = 0.15916E+01
  weight for this iteration     100.00

 eigenvalues of (default mixing * dielectric matrix)
  average eigenvalue GAMMA=   2.4536
  2.4536

 Free energy of the ion-electron system (eV)
  ---------------------------------------------------
  alpha Z        PSCENC =        69.95909506
  Ewald energy   TEWEN  =     -2741.94693423
  -Hartree energ DENC   =      -638.02689324
  -exchange      EXHF   =         0.00000000
  -V(xc)+E(xc)   XCENC  =       183.88589920
  PAW double counting   =      4004.24740269    -4052.77606843
  entropy T*S    EENTRO =         0.00000000
  eigenvalues    EBANDS =      -671.65332734
  atomic energy  EATOM  =      3769.08782378
  Solvation  Ediel_sol  =         0.00000000
  ---------------------------------------------------
  free energy    TOTEN  =       -77.22300251 eV

  energy without entropy =      -77.22300251  energy(sigma->0) =      -77.22300251


--------------------------------------------------------------------------------------------------------




--------------------------------------- Iteration      1(   7)  ---------------------------------------


    POTLOK:  cpu time    0.0039: real time    0.0044
    SETDIJ:  cpu time    0.0014: real time    0.0014
    EDDIAG:  cpu time    0.0500: real time    0.0500
  RMM-DIIS:  cpu time    0.0797: real time    0.0797
    ORTHCH:  cpu time    0.0073: real time    0.0073
 BZINTS: Fermi energy:  2.938595; 76.000000 electrons
         Band energy:-653.790756;  BLOECHL correction:  0.000000
       DOS:  cpu time    0.0012: real time    0.0012
    CHARGE:  cpu time    0.0162: real time    0.0162
    MIXING:  cpu time    0.0005: real time    0.0005
    --------------------------------------------
      LOOP:  cpu time    0.1602: real time    0.1607

 eigenvalue-minimisations  :   827
 total energy-change (2. order) : 0.4607890E+00  (-0.3342169E+00)
 number of electron      76.0000005 magnetization 
 augmentation part       -1.7345813 magnetization 

 Broyden mixing:
  rms(total) = 0.36531E+00    rms(broyden)= 0.36531E+00
  rms(prec ) = 0.39624E+00
  weight for this iteration     100.00

 eigenvalues of (default mixing * dielectric matrix)
  average eigenvalue GAMMA=   1.9362
  1.5023  2.3702

 Free energy of the ion-electron system (eV)
  ---------------------------------------------------
  alpha Z        PSCENC =        69.95909506
  Ewald energy   TEWEN  =     -2741.94693423
  -Hartree energ DENC   =      -655.67332177
  -exchange      EXHF   =         0.00000000
  -V(xc)+E(xc)   XCENC  =       185.67093177
  PAW double counting   =      6875.65950836    -6925.72856048
  entropy T*S    EENTRO =         0.00000000
  eigenvalues    EBANDS =      -653.79075596
  atomic energy  EATOM  =      3769.08782378
  Solvation  Ediel_sol  =         0.00000000
  ---------------------------------------------------
  free energy    TOTEN  =       -76.76221347 eV

  energy without entropy =      -76.76221347  energy(sigma->0) =      -76.76221347


--------------------------------------------------------------------------------------------------------




--------------------------------------- Iteration      1(   8)  ---------------------------------------


    POTLOK:  cpu time    0.0038: real time    0.0041
    SETDIJ:  cpu time    0.0013: real time    0.0013
    EDDIAG:  cpu time    0.0494: real time    0.0494
  RMM-DIIS:  cpu time    0.0951: real time    0.0951
    ORTHCH:  cpu time    0.0069: real time    0.0069
 BZINTS: Fermi energy:  2.907505; 76.000000 electrons
         Band energy:-654.697257;  BLOECHL correction:  0.000000
       DOS:  cpu time    0.0015: real time    0.0015
    CHARGE:  cpu time    0.0173: real time    0.0173
    MIXING:  cpu time    0.0005: real time    0.0005
    --------------------------------------------
      LOOP:  cpu time    0.1758: real time    0.1762

 eigenvalue-minimisations  :   970
 total energy-change (2. order) : 0.8467922E-01  (-0.2161902E-01)
 number of electron      76.0000005 magnetization 
 augmentation part       -1.7650794 magnetization 

 Broyden mixing:
  rms(total) = 0.66022E-01    rms(broyden)= 0.65995E-01
  rms(prec ) = 0.83980E-01
  weight for this iteration     100.00

 eigenvalues of (default mixing * dielectric matrix)
  average eigenvalue GAMMA=   1.7095
  1.0252  2.0516  2.0516

 Free energy of the ion-electron system (eV)
  ---------------------------------------------------
  alpha Z        PSCENC =        69.95909506
  Ewald energy   TEWEN  =     -2741.94693423
  -Hartree energ DENC   =      -654.69105211
  -exchange      EXHF   =         0.00000000
  -V(xc)+E(xc)   XCENC  =       185.66341022
  PAW double counting   =      7486.92457385    -7536.97719342
  entropy T*S    EENTRO =         0.00000000
  eigenvalues    EBANDS =      -654.69725740
  atomic energy  EATOM  =      3769.08782378
  Solvation  Ediel_sol  =         0.00000000
  ---------------------------------------------------
  free energy    TOTEN  =       -76.67753424 eV

  energy without entropy =      -76.67753424  energy(sigma->0) =      -76.67753424


--------------------------------------------------------------------------------------------------------




--------------------------------------- Iteration      1(   9)  ---------------------------------------


    POTLOK:  cpu time    0.0039: real time    0.0043
    SETDIJ:  cpu time    0.0013: real time    0.0013
    EDDIAG:  cpu time    0.0502: real time    0.0502
  RMM-DIIS:  cpu time    0.0885: real time    0.0885
    ORTHCH:  cpu time    0.0069: real time    0.0069
 BZINTS: Fermi energy:  2.908993; 76.000000 electrons
         Band energy:-655.971332;  BLOECHL correction:  0.000000
       DOS:  cpu time    0.0015: real time    0.0015
    CHARGE:  cpu time    0.0168: real time    0.0169
    MIXING:  cpu time    0.0006: real time    0.0006
    --------------------------------------------
      LOOP:  cpu time    0.1697: real time    0.1701

 eigenvalue-minimisations  :   915
 total energy-change (2. order) : 0.6372083E-02  (-0.4709330E-02)
 number of electron      76.0000005 magnetization 
 augmentation part       -1.7806356 magnetization 

 Broyden mixing:
  rms(total) = 0.22174E-01    rms(broyden)= 0.22155E-01
  rms(prec ) = 0.25725E-01
  weight for this iteration     100.00

 eigenvalues of (default mixing * dielectric matrix)
  average eigenvalue GAMMA=   1.7598
  2.3058  1.1817  1.7759  1.7759

 Free energy of the ion-electron system (eV)
  ---------------------------------------------------
  alpha Z        PSCENC =        69.95909506
  Ewald energy   TEWEN  =     -2741.94693423
  -Hartree energ DENC   =      -653.39267764
  -exchange      EXHF   =         0.00000000
  -V(xc)+E(xc)   XCENC  =       185.60441457
  PAW double counting   =      7430.56259871    -7480.57415061
  entropy T*S    EENTRO =         0.00000000
  eigenvalues    EBANDS =      -655.97133181
  atomic energy  EATOM  =      3769.08782378
  Solvation  Ediel_sol  =         0.00000000
  ---------------------------------------------------
  free energy    TOTEN  =       -76.67116216 eV

  energy without entropy =      -76.67116216  energy(sigma->0) =      -76.67116216


--------------------------------------------------------------------------------------------------------




--------------------------------------- Iteration      1(  10)  ---------------------------------------


    POTLOK:  cpu time    0.0038: real time    0.0041
    SETDIJ:  cpu time    0.0013: real time    0.0013
    EDDIAG:  cpu time    0.0498: real time    0.0498
  RMM-DIIS:  cpu time    0.1039: real time    0.1039
    ORTHCH:  cpu time    0.0069: real time    0.0069
 BZINTS: Fermi energy:  2.911484; 76.000000 electrons
         Band energy:-655.340630;  BLOECHL correction:  0.000000
       DOS:  cpu time    0.0014: real time    0.0014
    CHARGE:  cpu time    0.0157: real time    0.0157
    MIXING:  cpu time    0.0006: real time    0.0006
    --------------------------------------------
      LOOP:  cpu time    0.1834: real time    0.1837

 eigenvalue-minimisations  :  1107
 total energy-change (2. order) : 0.8441700E-04  (-0.9190677E-03)
 number of electron      76.0000005 magnetization 
 augmentation part       -1.7821196 magnetization 

 Broyden mixing:
  rms(total) = 0.16573E-01    rms(broyden)= 0.16560E-01
  rms(prec ) = 0.18037E-01
  weight for this iteration     100.00

 eigenvalues of (default mixing * dielectric matrix)
  average eigenvalue GAMMA=   1.7240
  2.2507  2.2507  2.0636  1.2696  0.7852

 Free energy of the ion-electron system (eV)
  ---------------------------------------------------
  alpha Z        PSCENC =        69.95909506
  Ewald energy   TEWEN  =     -2741.94693423
  -Hartree energ DENC   =      -654.04548688
  -exchange      EXHF   =         0.00000000
  -V(xc)+E(xc)   XCENC  =       185.65533318
  PAW double counting   =      7417.36434945    -7467.40462780
  entropy T*S    EENTRO =         0.00000000
  eigenvalues    EBANDS =      -655.34063031
  atomic energy  EATOM  =      3769.08782378
  Solvation  Ediel_sol  =         0.00000000
  ---------------------------------------------------
  free energy    TOTEN  =       -76.67107774 eV

  energy without entropy =      -76.67107774  energy(sigma->0) =      -76.67107774


--------------------------------------------------------------------------------------------------------




--------------------------------------- Iteration      1(  11)  ---------------------------------------


    POTLOK:  cpu time    0.0038: real time    0.0042
    SETDIJ:  cpu time    0.0013: real time    0.0013
    EDDIAG:  cpu time    0.0502: real time    0.0502
  RMM-DIIS:  cpu time    0.1069: real time    0.1069
    ORTHCH:  cpu time    0.0072: real time    0.0072
 BZINTS: Fermi energy:  2.912989; 76.000000 electrons
         Band energy:-655.247137;  BLOECHL correction:  0.000000
       DOS:  cpu time    0.0014: real time    0.0014
    CHARGE:  cpu time    0.0165: real time    0.0165
    MIXING:  cpu time    0.0007: real time    0.0007
    --------------------------------------------
      LOOP:  cpu time    0.1880: real time    0.1883

 eigenvalue-minimisations  :  1082
 total energy-change (2. order) :-0.3144803E-03  (-0.3996645E-03)
 number of electron      76.0000005 magnetization 
 augmentation part       -1.7847647 magnetization 

 Broyden mixing:
  rms(total) = 0.71877E-02    rms(broyden)= 0.71740E-02
  rms(prec ) = 0.82565E-02
  weight for this iteration     100.00

 eigenvalues of (default mixing * dielectric matrix)
  average eigenvalue GAMMA=   1.6599
  2.3976  2.3976  1.6276  1.4357  1.0504  1.0504

 Free energy of the ion-electron system (eV)
  ---------------------------------------------------
  alpha Z        PSCENC =        69.95909506
  Ewald energy   TEWEN  =     -2741.94693423
  -Hartree energ DENC   =      -654.15683862
  -exchange      EXHF   =         0.00000000
  -V(xc)+E(xc)   XCENC  =       185.66531353
  PAW double counting   =      7385.87249373    -7435.90520852
  entropy T*S    EENTRO =         0.00000000
  eigenvalues    EBANDS =      -655.24713696
  atomic energy  EATOM  =      3769.08782378
  Solvation  Ediel_sol  =         0.00000000
  ---------------------------------------------------
  free energy    TOTEN  =       -76.67139222 eV

  energy without entropy =      -76.67139222  energy(sigma->0) =      -76.67139222


--------------------------------------------------------------------------------------------------------




--------------------------------------- Iteration      1(  12)  ---------------------------------------


    POTLOK:  cpu time    0.0039: real time    0.0043
    SETDIJ:  cpu time    0.0014: real time    0.0014
    EDDIAG:  cpu time    0.0503: real time    0.0503
  RMM-DIIS:  cpu time    0.1017: real time    0.1017
    ORTHCH:  cpu time    0.0069: real time    0.0069
 BZINTS: Fermi energy:  2.912724; 76.000000 electrons
         Band energy:-655.301935;  BLOECHL correction:  0.000000
       DOS:  cpu time    0.0014: real time    0.0014
    CHARGE:  cpu time    0.0159: real time    0.0159
    MIXING:  cpu time    0.0006: real time    0.0006
    --------------------------------------------
      LOOP:  cpu time    0.1821: real time    0.1825

 eigenvalue-minimisations  :  1077
 total energy-change (2. order) :-0.1494838E-03  (-0.2096541E-03)
 number of electron      76.0000005 magnetization 
 augmentation part       -1.7872405 magnetization 

 Broyden mixing:
  rms(total) = 0.30165E-02    rms(broyden)= 0.29998E-02
  rms(prec ) = 0.33281E-02
  weight for this iteration     100.00

 eigenvalues of (default mixing * dielectric matrix)
  average eigenvalue GAMMA=   1.5793
  2.2272  2.2272  2.1968  1.3056  1.3056  1.0871  0.7055

 Free energy of the ion-electron system (eV)
  ---------------------------------------------------
  alpha Z        PSCENC =        69.95909506
  Ewald energy   TEWEN  =     -2741.94693423
  -Hartree energ DENC   =      -654.11285239
  -exchange      EXHF   =         0.00000000
  -V(xc)+E(xc)   XCENC  =       185.66588621
  PAW double counting   =      7396.48525776    -7446.50788328
  entropy T*S    EENTRO =         0.00000000
  eigenvalues    EBANDS =      -655.30193461
  atomic energy  EATOM  =      3769.08782378
  Solvation  Ediel_sol  =         0.00000000
  ---------------------------------------------------
  free energy    TOTEN  =       -76.67154171 eV

  energy without entropy =      -76.67154171  energy(sigma->0) =      -76.67154171


--------------------------------------------------------------------------------------------------------




--------------------------------------- Iteration      1(  13)  ---------------------------------------


    POTLOK:  cpu time    0.0039: real time    0.0042
    SETDIJ:  cpu time    0.0014: real time    0.0014
    EDDIAG:  cpu time    0.0487: real time    0.0487
  RMM-DIIS:  cpu time    0.0698: real time    0.0698
    ORTHCH:  cpu time    0.0069: real time    0.0069
 BZINTS: Fermi energy:  2.912162; 76.000000 electrons
         Band energy:-655.269662;  BLOECHL correction:  0.000000
       DOS:  cpu time    0.0014: real time    0.0014
    CHARGE:  cpu time    0.0160: real time    0.0160
    MIXING:  cpu time    0.0009: real time    0.0009
    --------------------------------------------
      LOOP:  cpu time    0.1490: real time    0.1493

 eigenvalue-minimisations  :   733
 total energy-change (2. order) :-0.7542296E-04  (-0.8743128E-04)
 number of electron      76.0000005 magnetization 
 augmentation part       -1.7879795 magnetization 

 Broyden mixing:
  rms(total) = 0.15656E-02    rms(broyden)= 0.15546E-02
  rms(prec ) = 0.18337E-02
  weight for this iteration     100.00

 eigenvalues of (default mixing * dielectric matrix)
  average eigenvalue GAMMA=   1.7836
  3.0875  2.4549  2.4549  1.7967  1.5060  1.0896  0.9397  0.9397

 Free energy of the ion-electron system (eV)
  ---------------------------------------------------
  alpha Z        PSCENC =        69.95909506
  Ewald energy   TEWEN  =     -2741.94693423
  -Hartree energ DENC   =      -654.15765931
  -exchange      EXHF   =         0.00000000
  -V(xc)+E(xc)   XCENC  =       185.66937877
  PAW double counting   =      7394.63338489    -7444.64704438
  entropy T*S    EENTRO =         0.00000000
  eigenvalues    EBANDS =      -655.26966170
  atomic energy  EATOM  =      3769.08782378
  Solvation  Ediel_sol  =         0.00000000
  ---------------------------------------------------
  free energy    TOTEN  =       -76.67161713 eV

  energy without entropy =      -76.67161713  energy(sigma->0) =      -76.67161713


--------------------------------------------------------------------------------------------------------




--------------------------------------- Iteration      1(  14)  ---------------------------------------


    POTLOK:  cpu time    0.0038: real time    0.0041
    SETDIJ:  cpu time    0.0013: real time    0.0013
    EDDIAG:  cpu time    0.0497: real time    0.0497
  RMM-DIIS:  cpu time    0.0844: real time    0.0844
    ORTHCH:  cpu time    0.0068: real time    0.0068
 BZINTS: Fermi energy:  2.911874; 76.000000 electrons
         Band energy:-655.268722;  BLOECHL correction:  0.000000
       DOS:  cpu time    0.0014: real time    0.0014
    CHARGE:  cpu time    0.0162: real time    0.0162
    MIXING:  cpu time    0.0007: real time    0.0007
    --------------------------------------------
      LOOP:  cpu time    0.1644: real time    0.1648

 eigenvalue-minimisations  :   895
 total energy-change (2. order) :-0.4106741E-04  (-0.4874550E-04)
 number of electron      76.0000005 magnetization 
 augmentation part       -1.7887149 magnetization 

 Broyden mixing:
  rms(total) = 0.49168E-03    rms(broyden)= 0.47793E-03
  rms(prec ) = 0.77287E-03
  weight for this iteration     100.00

 eigenvalues of (default mixing * dielectric matrix)
  average eigenvalue GAMMA=   1.6976
  3.0509  2.5060  2.1171  2.1171  1.4086  1.4086  0.9805  0.8591  0.8302

 Free energy of the ion-electron system (eV)
  ---------------------------------------------------
  alpha Z        PSCENC =        69.95909506
  Ewald energy   TEWEN  =     -2741.94693423
  -Hartree energ DENC   =      -654.17786125
  -exchange      EXHF   =         0.00000000
  -V(xc)+E(xc)   XCENC  =       185.67250173
  PAW double counting   =      7393.16970436    -7443.16726555
  entropy T*S    EENTRO =         0.00000000
  eigenvalues    EBANDS =      -655.26872209
  atomic energy  EATOM  =      3769.08782378
  Solvation  Ediel_sol  =         0.00000000
  ---------------------------------------------------
  free energy    TOTEN  =       -76.67165820 eV

  energy without entropy =      -76.67165820  energy(sigma->0) =      -76.67165820


--------------------------------------------------------------------------------------------------------




--------------------------------------- Iteration      1(  15)  ---------------------------------------


    POTLOK:  cpu time    0.0041: real time    0.0044
    SETDIJ:  cpu time    0.0014: real time    0.0014
    EDDIAG:  cpu time    0.0492: real time    0.0492
  RMM-DIIS:  cpu time    0.0622: real time    0.0622
    ORTHCH:  cpu time    0.0069: real time    0.0069
 BZINTS: Fermi energy:  2.910911; 76.000000 electrons
         Band energy:-655.265381;  BLOECHL correction:  0.000000
       DOS:  cpu time    0.0014: real time    0.0014
    CHARGE:  cpu time    0.0158: real time    0.0158
    MIXING:  cpu time    0.0007: real time    0.0007
    --------------------------------------------
      LOOP:  cpu time    0.1417: real time    0.1421

 eigenvalue-minimisations  :   635
 total energy-change (2. order) :-0.1759822E-04  (-0.2186249E-04)
 number of electron      76.0000005 magnetization 
 augmentation part       -1.7889111 magnetization 

 Broyden mixing:
  rms(total) = 0.40053E-03    rms(broyden)= 0.39611E-03
  rms(prec ) = 0.47430E-03
  weight for this iteration     100.00

 eigenvalues of (default mixing * dielectric matrix)
  average eigenvalue GAMMA=   1.8289
  4.1453  2.5286  2.5286  2.4918  1.4870  1.4870  1.0074  0.9363  0.8384  0.8384

 Free energy of the ion-electron system (eV)
  ---------------------------------------------------
  alpha Z        PSCENC =        69.95909506
  Ewald energy   TEWEN  =     -2741.94693423
  -Hartree energ DENC   =      -654.17927857
  -exchange      EXHF   =         0.00000000
  -V(xc)+E(xc)   XCENC  =       185.67212991
  PAW double counting   =      7392.34686916    -7442.34599949
  entropy T*S    EENTRO =         0.00000000
  eigenvalues    EBANDS =      -655.26538141
  atomic energy  EATOM  =      3769.08782378
  Solvation  Ediel_sol  =         0.00000000
  ---------------------------------------------------
  free energy    TOTEN  =       -76.67167580 eV

  energy without entropy =      -76.67167580  energy(sigma->0) =      -76.67167580


--------------------------------------------------------------------------------------------------------




--------------------------------------- Iteration      1(  16)  ---------------------------------------


    POTLOK:  cpu time    0.0038: real time    0.0041
    SETDIJ:  cpu time    0.0014: real time    0.0014
    EDDIAG:  cpu time    0.0495: real time    0.0496
  RMM-DIIS:  cpu time    0.0641: real time    0.0642
    ORTHCH:  cpu time    0.0069: real time    0.0069
 BZINTS: Fermi energy:  2.910211; 76.000000 electrons
         Band energy:-655.261118;  BLOECHL correction:  0.000000
       DOS:  cpu time    0.0014: real time    0.0014
    --------------------------------------------
      LOOP:  cpu time    0.1271: real time    0.1276

 eigenvalue-minimisations  :   634
 total energy-change (2. order) :-0.8704695E-05  (-0.1156230E-04)
 number of electron      76.0000005 magnetization 
 augmentation part       -1.7889111 magnetization 

 Free energy of the ion-electron system (eV)
  ---------------------------------------------------
  alpha Z        PSCENC =        69.95909506
  Ewald energy   TEWEN  =     -2741.94693423
  -Hartree energ DENC   =      -654.19083534
  -exchange      EXHF   =         0.00000000
  -V(xc)+E(xc)   XCENC  =       185.67332857
  PAW double counting   =      7392.51025484    -7442.50329968
  entropy T*S    EENTRO =         0.00000000
  eigenvalues    EBANDS =      -655.26111751
  atomic energy  EATOM  =      3769.08782378
  Solvation  Ediel_sol  =         0.00000000
  ---------------------------------------------------
  free energy    TOTEN  =       -76.67168450 eV

  energy without entropy =      -76.67168450  energy(sigma->0) =      -76.67168450


--------------------------------------------------------------------------------------------------------




 average (electrostatic) potential at core
  the test charge radii are     0.9587  0.9698  0.7079
  (the norm of the test charge is              1.0000)
       1 -88.0917       2 -88.0917       3 -88.0854       4 -88.0854       5 -88.0854
       6 -88.0854       7 -88.0594       8 -88.0594       9 -88.0272      10 -88.0272
      11 -64.0826      12 -64.0826      13 -63.3915      14 -63.3915      15 -63.3915
      16 -63.3915
 
 
 
 E-fermi :   2.9102     XC(G=0):  -9.2090     alpha+bet :-10.7074


 k-point     1 :       0.1250    0.1250    0.1250
  band No.  band energies     occupation 
      1     -41.2332      2.00000
      2     -41.2331      2.00000
      3     -40.5781      2.00000
      4     -40.5779      2.00000
      5     -40.5744      2.00000
      6     -40.5742      2.00000
      7     -12.4350      2.00000
      8     -12.2759      2.00000
      9      -9.4766      2.00000
     10      -9.3598      2.00000
     11      -9.3361      2.00000
     12      -9.1538      2.00000
     13      -9.1003      2.00000
     14      -9.0234      2.00000
     15      -5.3207      2.00000
     16      -4.7559      2.00000
     17      -2.5710      2.00000
     18      -2.0482      2.00000
     19      -1.9470      2.00000
     20      -1.9015      2.00000
     21      -1.7353      2.00000
     22      -1.5919      2.00000
     23      -0.5107      2.00000
     24      -0.2798      2.00000
     25       0.0832      2.00000
     26       0.2601      2.00000
     27       0.3457      2.00000
     28       0.7425      2.00000
     29       0.9953      2.00000
     30       1.5414      2.00000
     31       1.6861      2.00000
     32       1.7876      2.00000
     33       1.8686      2.00000
     34       2.0785      2.00000
     35       2.1588      2.00000
     36       2.2163      2.00000
     37       2.3086      2.00000
     38       2.7902      2.00000
     39       5.0139      0.00000
     40       5.8417      0.00000
     41       6.0248      0.00000
     42       6.0768      0.00000
     43       6.6457      0.00000
     44       6.8683      0.00000
     45       7.5259      0.00000
     46       7.6437      0.00000
     47       8.2806      0.00000
     48       8.5460      0.00000

 k-point     2 :       0.3750    0.1250    0.1250
  band No.  band energies     occupation 
      1     -41.2332      2.00000
      2     -41.2331      2.00000
      3     -40.5778      2.00000
      4     -40.5778      2.00000
      5     -40.5745      2.00000
      6     -40.5744      2.00000
      7     -12.3855      2.00000
      8     -12.3192      2.00000
      9      -9.4489      2.00000
     10      -9.3759      2.00000
     11      -9.3072      2.00000
     12      -9.2213      2.00000
     13      -9.0958      2.00000
     14      -9.0636      2.00000
     15      -5.0816      2.00000
     16      -4.8490      2.00000
     17      -2.3601      2.00000
     18      -2.1301      2.00000
     19      -2.0434      2.00000
     20      -1.9839      2.00000
     21      -1.7142      2.00000
     22      -1.6396      2.00000
     23      -0.3272      2.00000
     24      -0.0830      2.00000
     25      -0.0465      2.00000
     26       0.2312      2.00000
     27       0.4926      2.00000
     28       0.8800      2.00000
     29       1.1419      2.00000
     30       1.2889      2.00000
     31       1.4507      2.00000
     32       1.5484      2.00000
     33       1.7111      2.00000
     34       1.8386      2.00000
     35       2.0130      2.00000
     36       2.0955      2.00000
     37       2.3745      2.00000
     38       2.5436      2.00000
     39       5.4469      0.00000
     40       5.8355      0.00000
     41       6.3817      0.00000
     42       6.5342      0.00000
     43       6.8165      0.00000
     44       7.1833      0.00000
     45       7.3750      0.00000
     46       7.4899      0.00000
     47       8.3275      0.00000
     48       8.6001      0.00000

 k-point     3 :       0.1250    0.3750    0.1250
  band No.  band energies     occupation 
      1     -41.2332      2.00000
      2     -41.2331      2.00000
      3     -40.5780      2.00000
      4     -40.5779      2.00000
      5     -40.5743      2.00000
      6     -40.5743      2.00000
      7     -12.3743      2.00000
      8     -12.3036      2.00000
      9      -9.4495      2.00000
     10      -9.3827      2.00000
     11      -9.3439      2.00000
     12      -9.2456      2.00000
     13      -9.1068      2.00000
     14      -9.0193      2.00000
     15      -5.1735      2.00000
     16      -4.9056      2.00000
     17      -2.3970      2.00000
     18      -2.2012      2.00000
     19      -2.1626      2.00000
     20      -2.0849      2.00000
     21      -1.7128      2.00000
     22      -1.6439      2.00000
     23      -0.2725      2.00000
     24      -0.1037      2.00000
     25       0.2641      2.00000
     26       0.3987      2.00000
     27       0.5853      2.00000
     28       0.8259      2.00000
     29       0.9328      2.00000
     30       1.1267      2.00000
     31       1.7449      2.00000
     32       1.8018      2.00000
     33       2.0241      2.00000
     34       2.0904      2.00000
     35       2.1343      2.00000
     36       2.2626      2.00000
     37       2.3508      2.00000
     38       2.6987      2.00000
     39       5.3430      0.00000
     40       5.6535      0.00000
     41       6.2473      0.00000
     42       6.4915      0.00000
     43       6.7109      0.00000
     44       7.0171      0.00000
     45       7.4594      0.00000
     46       7.5011      0.00000
     47       8.3838      0.00000
     48       8.8124      0.00000

 k-point     4 :       0.3750    0.3750    0.1250
  band No.  band energies     occupation 
      1     -41.2332      2.00000
      2     -41.2331      2.00000
      3     -40.5778      2.00000
      4     -40.5778      2.00000
      5     -40.5745      2.00000
      6     -40.5744      2.00000
      7     -12.3486      2.00000
      8     -12.3191      2.00000
      9      -9.4306      2.00000
     10      -9.4007      2.00000
     11      -9.3293      2.00000
     12      -9.2842      2.00000
     13      -9.1086      2.00000
     14      -9.0619      2.00000
     15      -5.0144      2.00000
     16      -4.8990      2.00000
     17      -2.3340      2.00000
     18      -2.2321      2.00000
     19      -2.1142      2.00000
     20      -2.0747      2.00000
     21      -1.7249      2.00000
     22      -1.6552      2.00000
     23      -0.2135      2.00000
     24      -0.0647      2.00000
     25       0.1942      2.00000
     26       0.4522      2.00000
     27       0.6893      2.00000
     28       0.7648      2.00000
     29       0.8899      2.00000
     30       1.2545      2.00000
     31       1.4427      2.00000
     32       1.5761      2.00000
     33       1.8089      2.00000
     34       1.8708      2.00000
     35       2.0285      2.00000
     36       2.1624      2.00000
     37       2.4508      2.00000
     38       2.5596      2.00000
     39       5.5754      0.00000
     40       5.7503      0.00000
     41       6.5006      0.00000
     42       6.6714      0.00000
     43       6.9488      0.00000
     44       7.2827      0.00000
     45       7.4024      0.00000
     46       7.5294      0.00000
     47       8.7604      0.00000
     48       8.8870      0.00000

 k-point     5 :       0.1250    0.1250    0.3750
  band No.  band energies     occupation 
      1     -41.2331      2.00000
      2     -41.2331      2.00000
      3     -40.5780      2.00000
      4     -40.5780      2.00000
      5     -40.5743      2.00000
      6     -40.5742      2.00000
      7     -12.3788      2.00000
      8     -12.3118      2.00000
      9      -9.5215      2.00000
     10      -9.4464      2.00000
     11      -9.2611      2.00000
     12      -9.1581      2.00000
     13      -9.0992      2.00000
     14      -9.0818      2.00000
     15      -5.0093      2.00000
     16      -4.7748      2.00000
     17      -2.4422      2.00000
     18      -2.2492      2.00000
     19      -1.9995      2.00000
     20      -1.8916      2.00000
     21      -1.7191      2.00000
     22      -1.6212      2.00000
     23      -0.1943      2.00000
     24      -0.0392      2.00000
     25       0.0983      2.00000
     26       0.2381      2.00000
     27       0.3499      2.00000
     28       0.7499      2.00000
     29       1.1653      2.00000
     30       1.2788      2.00000
     31       1.3792      2.00000
     32       1.5501      2.00000
     33       1.7154      2.00000
     34       1.8485      2.00000
     35       1.9501      2.00000
     36       2.0701      2.00000
     37       2.2106      2.00000
     38       2.3367      2.00000
     39       5.5556      0.00000
     40       6.0125      0.00000
     41       6.5130      0.00000
     42       6.6555      0.00000
     43       6.7393      0.00000
     44       7.2412      0.00000
     45       7.3084      0.00000
     46       7.4858      0.00000
     47       8.5108      0.00000
     48       8.6249      0.00000

 k-point     6 :       0.3750    0.1250    0.3750
  band No.  band energies     occupation 
      1     -41.2332      2.00000
      2     -41.2331      2.00000
      3     -40.5778      2.00000
      4     -40.5778      2.00000
      5     -40.5745      2.00000
      6     -40.5745      2.00000
      7     -12.3532      2.00000
      8     -12.3252      2.00000
      9      -9.5518      2.00000
     10      -9.5158      2.00000
     11      -9.2283      2.00000
     12      -9.1909      2.00000
     13      -9.0750      2.00000
     14      -9.0563      2.00000
     15      -4.8673      2.00000
     16      -4.7698      2.00000
     17      -2.3572      2.00000
     18      -2.3272      2.00000
     19      -2.1119      2.00000
     20      -1.9665      2.00000
     21      -1.5940      2.00000
     22      -1.5809      2.00000
     23       0.0000      2.00000
     24       0.1126      2.00000
     25       0.1851      2.00000
     26       0.2745      2.00000
     27       0.3582      2.00000
     28       0.7926      2.00000
     29       1.0771      2.00000
     30       1.2231      2.00000
     31       1.3373      2.00000
     32       1.4025      2.00000
     33       1.5548      2.00000
     34       1.6377      2.00000
     35       1.8068      2.00000
     36       1.8624      2.00000
     37       2.0070      2.00000
     38       2.0850      2.00000
     39       5.9771      0.00000
     40       6.2698      0.00000
     41       6.6440      0.00000
     42       6.8433      0.00000
     43       7.0619      0.00000
     44       7.3015      0.00000
     45       7.6061      0.00000
     46       7.7950      0.00000
     47       8.3861      0.00000
     48       8.5570      0.00000

 k-point     7 :       0.1250    0.3750    0.3750
  band No.  band energies     occupation 
      1     -41.2331      2.00000
      2     -41.2331      2.00000
      3     -40.5780      2.00000
      4     -40.5779      2.00000
      5     -40.5743      2.00000
      6     -40.5743      2.00000
      7     -12.3416      2.00000
      8     -12.3118      2.00000
      9      -9.5064      2.00000
     10      -9.4749      2.00000
     11      -9.2664      2.00000
     12      -9.1974      2.00000
     13      -9.1235      2.00000
     14      -9.1064      2.00000
     15      -4.9276      2.00000
     16      -4.8223      2.00000
     17      -2.4359      2.00000
     18      -2.3030      2.00000
     19      -2.0935      2.00000
     20      -2.0256      2.00000
     21      -1.7744      2.00000
     22      -1.5858      2.00000
     23      -0.1138      2.00000
     24       0.0760      2.00000
     25       0.2661      2.00000
     26       0.4758      2.00000
     27       0.6710      2.00000
     28       0.7755      2.00000
     29       0.8367      2.00000
     30       1.1665      2.00000
     31       1.3155      2.00000
     32       1.4360      2.00000
     33       1.8381      2.00000
     34       1.8846      2.00000
     35       2.0691      2.00000
     36       2.1147      2.00000
     37       2.2608      2.00000
     38       2.3506      2.00000
     39       5.6796      0.00000
     40       5.8730      0.00000
     41       6.5661      0.00000
     42       6.7783      0.00000
     43       7.1101      0.00000
     44       7.1573      0.00000
     45       7.4402      0.00000
     46       7.4685      0.00000
     47       8.7662      0.00000
     48       9.2212      0.00000

 k-point     8 :       0.3750    0.3750    0.3750
  band No.  band energies     occupation 
      1     -41.2331      2.00000
      2     -41.2331      2.00000
      3     -40.5778      2.00000
      4     -40.5778      2.00000
      5     -40.5745      2.00000
      6     -40.5745      2.00000
      7     -12.3273      2.00000
      8     -12.3149      2.00000
      9      -9.4901      2.00000
     10      -9.4726      2.00000
     11      -9.2863      2.00000
     12      -9.2460      2.00000
     13      -9.1357      2.00000
     14      -9.1129      2.00000
     15      -4.7963      2.00000
     16      -4.7510      2.00000
     17      -2.3393      2.00000
     18      -2.2984      2.00000
     19      -2.1724      2.00000
     20      -2.1162      2.00000
     21      -1.6326      2.00000
     22      -1.6017      2.00000
     23      -0.1584      2.00000
     24      -0.0944      2.00000
     25       0.3995      2.00000
     26       0.6308      2.00000
     27       0.6532      2.00000
     28       0.7778      2.00000
     29       0.8825      2.00000
     30       1.0272      2.00000
     31       1.3239      2.00000
     32       1.4132      2.00000
     33       1.6909      2.00000
     34       1.8097      2.00000
     35       1.9161      2.00000
     36       1.9867      2.00000
     37       2.0608      2.00000
     38       2.1150      2.00000
     39       6.0888      0.00000
     40       6.2511      0.00000
     41       6.8289      0.00000
     42       6.9647      0.00000
     43       7.0826      0.00000
     44       7.1885      0.00000
     45       7.3691      0.00000
     46       7.4354      0.00000
     47       8.8393      0.00000
     48       9.0064      0.00000


--------------------------------------------------------------------------------------------------------


 soft charge-density along one line, spin component           1
         0         1         2         3         4         5         6         7         8         9
 total charge-density along one line
 
 pseudopotential strength for first ion, spin component:           1
 30.000  37.430  -0.001  -0.004  -0.000  -0.002  -0.007  -0.000
 37.430  46.705  -0.001  -0.005  -0.000  -0.002  -0.008  -0.000
 -0.001  -0.001   6.575   0.001   0.000  10.181   0.002   0.000
 -0.004  -0.005   0.001   6.576   0.000   0.002  10.183   0.000
 -0.000  -0.000   0.000   0.000   6.574   0.000   0.000  10.180
 -0.002  -0.002  10.181   0.002   0.000  15.784   0.003   0.000
 -0.007  -0.008   0.002  10.183   0.000   0.003  15.787   0.000
 -0.000  -0.000   0.000   0.000  10.180   0.000   0.000  15.783
 total augmentation occupancy for first ion, spin component:           1
 10.984  -6.312  -0.062  -0.239   0.000   0.026   0.104   0.000
 -6.312   4.096   0.062   0.211   0.000  -0.023  -0.085   0.000
 -0.062   0.062   4.220   0.296   0.000  -1.389  -0.134   0.000
 -0.239   0.211   0.296   4.635   0.000  -0.134  -1.585   0.000
  0.000   0.000   0.000   0.000   4.193   0.000   0.000  -1.382
  0.026  -0.023  -1.389  -0.134   0.000   0.497   0.060   0.000
  0.104  -0.085  -0.134  -1.585   0.000   0.060   0.584   0.000
  0.000   0.000   0.000   0.000  -1.382   0.000   0.000   0.494


------------------------ aborting loop because EDIFF is reached ----------------------------------------


    CHARGE:  cpu time    0.0165: real time    0.0165
    FORLOC:  cpu time    0.0007: real time    0.0007
    FORNL :  cpu time    0.0319: real time    0.0321
    STRESS:  cpu time    0.0930: real time    0.0938
    FORCOR:  cpu time    0.0031: real time    0.0031
    FORHAR:  cpu time    0.0025: real time    0.0025
    MIXING:  cpu time    0.0005: real time    0.0005
    OFIELD:  cpu time    0.0001: real time    0.0001

  FORCE on cell =-STRESS in cart. coord.  units (eV):
  Direction    XX          YY          ZZ          XY          YZ          ZX
  --------------------------------------------------------------------------------------
  Alpha Z    69.95910    69.95910    69.95910
  Ewald    -905.46024  -905.07611  -931.41731     0.00000    -0.00000     0.00000
  Hartree   228.35543   227.88505   197.96450    -0.00000     0.00000    -0.00000
  E(xc)    -277.41051  -277.42348  -277.42106    -0.00000    -0.00000    -0.00000
  Local    -676.08291  -673.45578  -611.49870    -0.00000    -0.00000    -0.00000
  n-local   603.82122   605.06676   605.42705    -0.17772    -0.12358    -0.04908
  augment   -45.18587   -44.93991   -44.51319    -0.00000    -0.00000     0.00000
  Kinetic  1004.28116   998.47335   992.14591     0.07074    -0.01296    -0.05181
  Fock        0.00000     0.00000     0.00000     0.00000     0.00000     0.00000
  -------------------------------------------------------------------------------------
  Total       2.27736     0.48897     0.64630     0.00000     0.00000     0.00000
  in kB      12.93585     2.77746     3.67110     0.00000     0.00000     0.00000
  external pressure =        6.46 kB  Pullay stress =        0.00 kB


 VOLUME and BASIS-vectors are now :
 -----------------------------------------------------------------------------
  energy-cutoff  :      420.00
  volume of cell :      282.06
      direct lattice vectors                 reciprocal lattice vectors
     7.166537003  0.000000000  0.000000000     0.139537408  0.000000000  0.000000000
[...]
     17      -2.3683      2.00000
     18      -2.1733      2.00000
     19      -2.1388      2.00000
     20      -2.0589      2.00000
     21      -1.6720      2.00000
     22      -1.6134      2.00000
     23      -0.2402      2.00000
     24      -0.0875      2.00000
     25       0.3081      2.00000
     26       0.4544      2.00000
     27       0.6259      2.00000
     28       0.8450      2.00000
     29       0.9494      2.00000
     30       1.1288      2.00000
     31       1.7399      2.00000
     32       1.8359      2.00000
     33       2.1183      2.00000
     34       2.1680      2.00000
     35       2.1870      2.00000
     36       2.2787      2.00000
     37       2.4114      2.00000
     38       2.7131      2.00000
     39       5.4033      0.00000
     40       5.7271      0.00000
     41       6.2860      0.00000
     42       6.5201      0.00000
     43       6.7403      0.00000
     44       6.9722      0.00000
     45       7.4343      0.00000
     46       7.4942      0.00000
     47       8.2703      0.00000
     48       8.4135      0.00000

 k-point     4 :       0.3750    0.3750    0.1250
  band No.  band energies     occupation 
      1     -41.1788      2.00000
      2     -41.1788      2.00000
      3     -40.7018      2.00000
      4     -40.7017      2.00000
      5     -40.6987      2.00000
      6     -40.6987      2.00000
      7     -12.3133      2.00000
      8     -12.2819      2.00000
      9      -9.3761      2.00000
     10      -9.3400      2.00000
     11      -9.3100      2.00000
     12      -9.2700      2.00000
     13      -9.0680      2.00000
     14      -9.0412      2.00000
     15      -4.9570      2.00000
     16      -4.8380      2.00000
     17      -2.3042      2.00000
     18      -2.2055      2.00000
     19      -2.0771      2.00000
     20      -2.0288      2.00000
     21      -1.7032      2.00000
     22      -1.6243      2.00000
     23      -0.1664      2.00000
     24      -0.0284      2.00000
     25       0.1833      2.00000
     26       0.4625      2.00000
     27       0.7238      2.00000
     28       0.7893      2.00000
     29       0.9071      2.00000
     30       1.2537      2.00000
     31       1.5005      2.00000
     32       1.6135      2.00000
     33       1.9167      2.00000
     34       1.9601      2.00000
     35       2.1081      2.00000
     36       2.2089      2.00000
     37       2.4439      2.00000
     38       2.5426      2.00000
     39       5.6209      0.00000
     40       5.7967      0.00000
     41       6.5524      0.00000
     42       6.7180      0.00000
     43       6.9779      0.00000
     44       7.3009      0.00000
     45       7.4147      0.00000
     46       7.5526      0.00000
     47       8.4658      0.00000
     48       8.5636      0.00000

 k-point     5 :       0.1250    0.1250    0.3750
  band No.  band energies     occupation 
      1     -41.1788      2.00000
      2     -41.1788      2.00000
      3     -40.7019      2.00000
      4     -40.7019      2.00000
      5     -40.6986      2.00000
      6     -40.6985      2.00000
      7     -12.3465      2.00000
      8     -12.2769      2.00000
      9      -9.4630      2.00000
     10      -9.3733      2.00000
     11      -9.2535      2.00000
     12      -9.1396      2.00000
     13      -9.0712      2.00000
     14      -9.0401      2.00000
     15      -4.9755      2.00000
     16      -4.7337      2.00000
     17      -2.3807      2.00000
     18      -2.1925      2.00000
     19      -1.9674      2.00000
     20      -1.8464      2.00000
     21      -1.6793      2.00000
     22      -1.6020      2.00000
     23      -0.1587      2.00000
     24      -0.0325      2.00000
     25       0.1487      2.00000
     26       0.2212      2.00000
     27       0.3683      2.00000
     28       0.7663      2.00000
     29       1.1747      2.00000
     30       1.3049      2.00000
     31       1.4420      2.00000
     32       1.5240      2.00000
     33       1.7480      2.00000
     34       1.8936      2.00000
     35       1.9603      2.00000
     36       2.0890      2.00000
     37       2.3603      2.00000
     38       2.4597      2.00000
     39       5.5448      0.00000
     40       6.0176      0.00000
     41       6.5276      0.00000
     42       6.6700      0.00000
     43       6.7402      0.00000
     44       7.3257      0.00000
     45       7.4086      0.00000
     46       7.4943      0.00000
     47       8.3708      0.00000
     48       8.5583      0.00000

 k-point     6 :       0.3750    0.1250    0.3750
  band No.  band energies     occupation 
      1     -41.1788      2.00000
      2     -41.1788      2.00000
      3     -40.7018      2.00000
      4     -40.7017      2.00000
      5     -40.6988      2.00000
      6     -40.6987      2.00000
      7     -12.3199      2.00000
      8     -12.2908      2.00000
      9      -9.5077      2.00000
     10      -9.4664      2.00000
     11      -9.1945      2.00000
     12      -9.1577      2.00000
     13      -9.0386      2.00000
     14      -9.0245      2.00000
     15      -4.8348      2.00000
     16      -4.7343      2.00000
     17      -2.3029      2.00000
     18      -2.2781      2.00000
     19      -2.0680      2.00000
     20      -1.9103      2.00000
     21      -1.5619      2.00000
     22      -1.5499      2.00000
     23       0.0224      2.00000
     24       0.1081      2.00000
     25       0.1862      2.00000
     26       0.2829      2.00000
     27       0.4053      2.00000
     28       0.8180      2.00000
     29       1.1327      2.00000
     30       1.2355      2.00000
     31       1.3579      2.00000
     32       1.4252      2.00000
     33       1.6062      2.00000
     34       1.6790      2.00000
     35       1.8644      2.00000
     36       1.9196      2.00000
     37       2.0620      2.00000
     38       2.1391      2.00000
     39       5.9664      0.00000
     40       6.2687      0.00000
     41       6.6888      0.00000
     42       6.8852      0.00000
     43       7.0424      0.00000
     44       7.3124      0.00000
     45       7.6948      0.00000
     46       7.8864      0.00000
     47       8.3737      0.00000
     48       8.5354      0.00000

 k-point     7 :       0.1250    0.3750    0.3750
  band No.  band energies     occupation 
      1     -41.1788      2.00000
      2     -41.1788      2.00000
      3     -40.7019      2.00000
      4     -40.7018      2.00000
      5     -40.6986      2.00000
      6     -40.6986      2.00000
      7     -12.3067      2.00000
      8     -12.2751      2.00000
      9      -9.4438      2.00000
     10      -9.4080      2.00000
     11      -9.2642      2.00000
     12      -9.1722      2.00000
     13      -9.1094      2.00000
     14      -9.0677      2.00000
     15      -4.8711      2.00000
     16      -4.7624      2.00000
     17      -2.3864      2.00000
     18      -2.2534      2.00000
     19      -2.0647      2.00000
     20      -1.9975      2.00000
     21      -1.7529      2.00000
     22      -1.5650      2.00000
     23      -0.1047      2.00000
     24       0.1126      2.00000
     25       0.2922      2.00000
     26       0.5135      2.00000
     27       0.6786      2.00000
     28       0.8174      2.00000
     29       0.8592      2.00000
     30       1.1939      2.00000
     31       1.3534      2.00000
     32       1.4585      2.00000
     33       1.8251      2.00000
     34       1.9120      2.00000
     35       2.1249      2.00000
     36       2.1416      2.00000
     37       2.3647      2.00000
     38       2.4592      2.00000
     39       5.7250      0.00000
     40       5.9266      0.00000
     41       6.5538      0.00000
     42       6.7416      0.00000
     43       7.1435      0.00000
     44       7.2288      0.00000
     45       7.4508      0.00000
     46       7.4888      0.00000
     47       8.5832      0.00000
     48       8.9495      0.00000

 k-point     8 :       0.3750    0.3750    0.3750
  band No.  band energies     occupation 
      1     -41.1788      2.00000
      2     -41.1788      2.00000
      3     -40.7018      2.00000
      4     -40.7017      2.00000
      5     -40.6987      2.00000
      6     -40.6987      2.00000
      7     -12.2917      2.00000
      8     -12.2785      2.00000
      9      -9.4268      2.00000
     10      -9.4101      2.00000
     11      -9.2698      2.00000
     12      -9.2306      2.00000
     13      -9.1092      2.00000
     14      -9.0882      2.00000
     15      -4.7388      2.00000
     16      -4.6921      2.00000
     17      -2.2920      2.00000
     18      -2.2475      2.00000
     19      -2.1368      2.00000
     20      -2.0726      2.00000
     21      -1.6121      2.00000
     22      -1.5865      2.00000
     23      -0.1478      2.00000
     24      -0.0678      2.00000
     25       0.4138      2.00000
     26       0.6273      2.00000
     27       0.6671      2.00000
     28       0.8259      2.00000
     29       0.9025      2.00000
     30       1.0281      2.00000
     31       1.3877      2.00000
     32       1.4692      2.00000
     33       1.7504      2.00000
     34       1.8426      2.00000
     35       1.9441      2.00000
     36       2.0270      2.00000
     37       2.1296      2.00000
     38       2.1847      2.00000
     39       6.1337      0.00000
     40       6.2985      0.00000
     41       6.8150      0.00000
     42       6.9716      0.00000
     43       7.1114      0.00000
     44       7.2489      0.00000
     45       7.4067      0.00000
     46       7.4782      0.00000
     47       8.7493      0.00000
     48       8.8435      0.00000


--------------------------------------------------------------------------------------------------------


 soft charge-density along one line, spin component           1
         0         1         2         3         4         5         6         7         8         9
 total charge-density along one line
 
 pseudopotential strength for first ion, spin component:           1
 29.990  37.418  -0.002  -0.006  -0.000  -0.003  -0.009  -0.000
 37.418  46.690  -0.002  -0.007  -0.000  -0.003  -0.011  -0.000
 -0.002  -0.002   6.573   0.001   0.000  10.178   0.001   0.000
 -0.006  -0.007   0.001   6.575   0.000   0.001  10.181   0.000
 -0.000  -0.000   0.000   0.000   6.573   0.000   0.000  10.177
 -0.003  -0.003  10.178   0.001   0.000  15.780   0.002   0.000
 -0.009  -0.011   0.001  10.181   0.000   0.002  15.784   0.000
 -0.000  -0.000   0.000   0.000  10.177   0.000   0.000  15.779
 total augmentation occupancy for first ion, spin component:           1
 10.994  -6.323  -0.061  -0.255   0.000   0.028   0.104   0.000
 -6.323   4.107   0.058   0.229   0.000  -0.025  -0.086   0.000
 -0.061   0.058   4.184   0.264   0.000  -1.375  -0.118   0.000
 -0.255   0.229   0.264   4.663   0.000  -0.118  -1.599   0.000
  0.000   0.000   0.000   0.000   4.195   0.000   0.000  -1.382
  0.028  -0.025  -1.375  -0.118   0.000   0.491   0.053   0.000
  0.104  -0.086  -0.118  -1.599   0.000   0.053   0.591   0.000
  0.000   0.000   0.000   0.000  -1.382   0.000   0.000   0.494


------------------------ aborting loop because EDIFF is reached ----------------------------------------


    CHARGE:  cpu time    0.0164: real time    0.0165
    FORLOC:  cpu time    0.0008: real time    0.0008
    FORNL :  cpu time    0.0319: real time    0.0319
    STRESS:  cpu time    0.0928: real time    0.0928
    FORCOR:  cpu time    0.0030: real time    0.0030
    FORHAR:  cpu time    0.0025: real time    0.0025
    MIXING:  cpu time    0.0003: real time    0.0003
    OFIELD:  cpu time    0.0000: real time    0.0000

  FORCE on cell =-STRESS in cart. coord.  units (eV):
  Direction    XX          YY          ZZ          XY          YZ          ZX
  --------------------------------------------------------------------------------------
  Alpha Z    69.91174    69.91174    69.91174
  Ewald    -947.71592  -897.58176  -908.02151     0.00000     0.00000     0.00000
  Hartree   207.29449   231.69007   205.14227    -0.00000     0.00000    -0.00000
  E(xc)    -277.10591  -277.12494  -277.14314    -0.00000    -0.00000    -0.00000
  Local    -614.05124  -684.75182  -640.02572    -0.00000    -0.00000    -0.00000
  n-local   606.73414   607.83102   608.71222    -0.20293    -0.11896    -0.05749
  augment   -44.27403   -44.03184   -43.44437     0.00000    -0.00000    -0.00000
  Kinetic   999.17002   994.03958   984.89740     0.06602    -0.00067    -0.04186
  Fock        0.00000     0.00000     0.00000     0.00000     0.00000     0.00000
  -------------------------------------------------------------------------------------
  Total      -0.03670    -0.01797     0.02889     0.00000     0.00000     0.00000
  in kB      -0.20832    -0.10199     0.16397     0.00000     0.00000     0.00000
  external pressure =       -0.05 kB  Pullay stress =        0.00 kB


 VOLUME and BASIS-vectors are now :
 -----------------------------------------------------------------------------
  energy-cutoff  :      420.00
  volume of cell :      282.26
      direct lattice vectors                 reciprocal lattice vectors
     7.175333329  0.000000000  0.000000000     0.139366348  0.000000000  0.000000000
     0.000000000  5.681477868  0.000000000     0.000000000  0.176010542  0.000000000
     0.000000000  0.000000000  6.923707344     0.000000000  0.000000000  0.144431292

  length of vectors
     7.175333329  5.681477868  6.923707344     0.139366348  0.176010542  0.144431292


 FORCES acting on ions
    electron-ion (+dipol)            ewald-force                    non-local-force                 convergence-correction
 -----------------------------------------------------------------------------------------------
   0.141E-09 -.936E+01 -.228E+02   0.204E-08 0.975E+01 0.240E+02   0.000E+00 -.387E+00 -.120E+01   -.184E-12 0.555E-03 -.801E-04
   -.266E-08 0.936E+01 -.228E+02   -.614E-09 -.975E+01 0.240E+02   0.000E+00 0.387E+00 -.120E+01   -.874E-12 -.555E-03 -.801E-04
   -.759E+02 0.405E+02 0.130E+00   0.768E+02 -.417E+02 -.145E+01   -.947E+00 0.123E+01 0.133E+01   0.145E-02 -.217E-03 -.101E-02
   0.759E+02 -.405E+02 0.130E+00   -.768E+02 0.417E+02 -.145E+01   0.947E+00 -.123E+01 0.133E+01   -.145E-02 0.217E-03 -.101E-02
   -.759E+02 -.405E+02 0.130E+00   0.768E+02 0.417E+02 -.145E+01   -.947E+00 -.123E+01 0.133E+01   0.145E-02 0.217E-03 -.101E-02
   0.759E+02 0.405E+02 0.130E+00   -.768E+02 -.417E+02 -.145E+01   0.947E+00 0.123E+01 0.133E+01   -.145E-02 -.217E-03 -.101E-02
   -.106E-09 -.612E+02 0.627E+02   0.178E-08 0.615E+02 -.648E+02   0.000E+00 -.306E+00 0.211E+01   -.232E-12 -.885E-03 -.129E-02
   -.695E-08 0.612E+02 0.627E+02   -.954E-09 -.615E+02 -.648E+02   0.000E+00 0.306E+00 0.211E+01   -.174E-12 0.885E-03 -.129E-02
   -.130E-10 -.165E+02 -.893E+02   0.149E-08 0.170E+02 0.908E+02   0.000E+00 -.536E+00 -.146E+01   -.674E-13 -.519E-03 0.259E-02
   -.702E-08 0.165E+02 -.893E+02   -.105E-08 -.170E+02 0.908E+02   0.000E+00 0.536E+00 -.146E+01   0.625E-12 0.519E-03 0.259E-02
   0.725E-10 0.104E+02 0.179E+02   0.958E-09 -.111E+02 -.172E+02   0.000E+00 0.701E+00 -.720E+00   -.358E-12 0.184E-02 0.154E-03
   -.489E-08 -.104E+02 0.179E+02   -.428E-09 0.111E+02 -.172E+02   0.000E+00 -.701E+00 -.720E+00   -.206E-12 -.184E-02 0.154E-03
   -.126E+02 -.404E+01 0.157E+02   0.122E+02 0.425E+01 -.149E+02   0.475E+00 -.213E+00 -.796E+00   -.985E-04 -.117E-02 0.304E-03
   0.126E+02 0.404E+01 0.157E+02   -.122E+02 -.425E+01 -.149E+02   -.475E+00 0.213E+00 -.796E+00   0.985E-04 0.117E-02 0.304E-03
   -.126E+02 0.404E+01 0.157E+02   0.122E+02 -.425E+01 -.149E+02   0.475E+00 0.213E+00 -.796E+00   -.985E-04 0.117E-02 0.304E-03
   0.126E+02 -.404E+01 0.157E+02   -.122E+02 0.425E+01 -.149E+02   -.475E+00 -.213E+00 -.796E+00   0.985E-04 -.117E-02 0.304E-03
 -----------------------------------------------------------------------------------------------
   -.672E-07 0.328E-07 0.417E+00   -.124E-13 0.320E-13 -.142E-13   -.111E-15 -.833E-16 -.418E+00   -.779E-12 -.607E-14 -.907E-04
 
 
 POSITION                                       TOTAL-FORCE (eV/Angst)
 -----------------------------------------------------------------------------------
      0.00000      4.27794      1.90597         0.000000     -0.001323     -0.004280
      3.58767      1.40354      5.36782         0.000000      0.001323     -0.004280
      1.65458      3.08919      1.62809        -0.002616      0.001859      0.004919
      1.93309      2.59229      5.08994         0.002616     -0.001859      0.004919
      5.24224      2.59229      5.08994        -0.002616     -0.001859      0.004919
      5.52076      3.08919      1.62809         0.002616      0.001859      0.004919
      0.00000      5.45705      0.22596         0.000000     -0.003094      0.019361
      3.58767      0.22443      3.68782         0.000000      0.003094      0.019361
      0.00000      5.23224      3.66719         0.000000     -0.012282     -0.008734
      3.58767      0.44924      0.20533         0.000000      0.012282     -0.008734
      0.00000      2.13119      6.82988         0.000000      0.015051     -0.003076
      3.58767      3.55029      3.36802         0.000000     -0.015051     -0.003076
      2.03008      4.44027      6.58146         0.004120     -0.001697     -0.006555
      1.55759      1.24121      3.11961        -0.004120      0.001697     -0.006555
      5.61774      1.24121      3.11961         0.004120      0.001697     -0.006555
      5.14526      4.44027      6.58146        -0.004120     -0.001697     -0.006555
 -----------------------------------------------------------------------------------
    total drift:                               -0.000000      0.000000     -0.001304


--------------------------------------------------------------------------------------------------------



  FREE ENERGIE OF THE ION-ELECTRON SYSTEM (eV)
  ---------------------------------------------------
  free  energy   TOTEN  =       -76.83964874 eV

  energy  without entropy=      -76.83964874  energy(sigma->0) =      -76.83964874
 
 d Force = 0.8272411E-05[ 0.394E-05, 0.126E-04]  d Energy =-0.1236697E-05 0.951E-05
 d Force = 0.1131650E+00[ 0.113E+00, 0.113E+00]  d Ewald  =-0.5290532E-01 0.166E+00


--------------------------------------------------------------------------------------------------------


    POTLOK:  cpu time    0.0040: real time    0.0040


--------------------------------------------------------------------------------------------------------




--------------------------------------------------------------------------------------------------------


  
 reached required accuracy - stopping structural energy minimisation
     LOOP+:  cpu time    0.4846: real time    0.4911
    4ORBIT:  cpu time    0.0000: real time    0.0000
 BZINTS: Fermi energy:  2.909018; 76.000000 electrons
         Band energy:-653.716166;  BLOECHL correction:  0.000000

 total amount of memory used by VASP MPI-rank0    33674. kBytes
=======================================================================

   base      :      30000. kBytes
   nonlr-proj:       1208. kBytes
   fftplans  :        681. kBytes
   grid      :       1230. kBytes
   one-center:          3. kBytes
   wavefun   :        552. kBytes
 
  
  
 General timing and accounting informations for this job:
 ========================================================
  
                  Total CPU time used (sec):       43.388
                            User time (sec):       42.871
                          System time (sec):        0.516
                         Elapsed time (sec):       44.943
  
                   Maximum memory used (kb):      194528.
                   Average memory used (kb):           0.
  
                          Minor page faults:        48237
                          Major page faults:           73
                 Voluntary context switches:         3009
