<?xml version="1.0" encoding="ISO-8859-1"?>
<modeling>
 <generator>
  <i name="program" type="string">vasp </i>
  <i name="version" type="string">5.4.4.18Apr17-6-g9f103f2a35  </i>
  <i name="subversion" type="string">(build Feb 28 2020 14:15:47) complex            parallel </i>
  <i name="platform" type="string">LinuxIFC </i>
  <i name="date" type="string">2022 08 07 </i>
  <i name="time" type="string">20:47:21 </i>
 </generator>
 <incar>
  <i type="int" name="ISTART">     0</i>
  <i type="string" name="PREC">accurate</i>
  <i type="string" name="ALGO"> FAST</i>
  <i type="int" name="ISPIN">     1</i>
  <i type="int" name="ICHARG">     2</i>
  <i type="int" name="INIWAV">     1</i>
  <i type="int" name="NELM">   100</i>
  <i type="int" name="IBRION">     2</i>
  <i name="EDIFF">      0.00002000</i>
  <i name="EDIFFG">      0.00020000</i>
  <i type="int" name="NSW">   100</i>
  <i type="int" name="ISIF">     3</i>
  <i name="ENCUT">    420.00000000</i>
  <i type="string" name="LREAL"> AUTO</i>
  <i type="int" name="ISMEAR">    -5</i>
  <i type="logical" name="LWAVE"> F  </i>
  <i type="logical" name="LCHARG"> F  </i>
  <v type="int" name="KPOINT_BSE">    -1     0     0     0</v>
  <i type="int" name="NELM">   100</i>
 </incar>
 <structure name="primitive_cell" >
  <crystal>
   <varray name="basis" >
    <v>       7.16653700       0.00000000       0.00000000 </v>
    <v>       0.00000000       5.68242751       0.00000000 </v>
    <v>       0.00000000       0.00000000       6.92635523 </v>
   </varray>
   <i name="volume">    282.06422902 </i>
   <varray name="rec_basis" >
    <v>       0.13953741       0.00000000       0.00000000 </v>
    <v>       0.00000000       0.17598113       0.00000000 </v>
    <v>       0.00000000       0.00000000       0.14437608 </v>
   </varray>
  </crystal>
  <varray name="positions" >
   <v>       0.00000000      -0.24644388       0.27501048 </v>
   <v>       0.00000000      -0.05744197      -0.48108709 </v>
   <v>       0.00000000      -0.06019376       0.02130888 </v>
   <v>      -0.23094519      -0.45848193       0.24709611 </v>
   <v>       0.23094519      -0.45848193       0.24709611 </v>
   <v>       0.00000000       0.37599568      -0.01359817 </v>
   <v>      -0.28297476      -0.21897612      -0.05018632 </v>
   <v>       0.28297476      -0.21897612      -0.05018632 </v>
   <v>      -0.21702524       0.21897612       0.44981368 </v>
   <v>       0.21702524       0.21897612       0.44981368 </v>
   <v>      -0.50000000      -0.37599568       0.48640183 </v>
   <v>      -0.26905481       0.45848193      -0.25290389 </v>
   <v>       0.26905481       0.45848193      -0.25290389 </v>
   <v>      -0.50000000       0.06019376      -0.47869112 </v>
   <v>      -0.50000000       0.05744197       0.01891291 </v>
   <v>      -0.50000000       0.24644388      -0.22498952 </v>
  </varray>
 </structure>
 <varray name="primitive_index" >
  <v type="int" >        1 </v>
  <v type="int" >        9 </v>
  <v type="int" >        7 </v>
  <v type="int" >        6 </v>
  <v type="int" >        3 </v>
  <v type="int" >       11 </v>
  <v type="int" >       16 </v>
  <v type="int" >       13 </v>
  <v type="int" >       15 </v>
  <v type="int" >       14 </v>
  <v type="int" >       12 </v>
  <v type="int" >        5 </v>
  <v type="int" >        4 </v>
  <v type="int" >        8 </v>
  <v type="int" >       10 </v>
  <v type="int" >        2 </v>
 </varray>
 <kpoints>
  <generation param="Monkhorst-Pack">
   <v type="int" name="divisions">       4        4        4 </v>
   <v name="usershift">      0.00000000       0.00000000       0.00000000 </v>
   <v name="genvec1">      0.25000000       0.00000000       0.00000000 </v>
   <v name="genvec2">      0.00000000       0.25000000       0.00000000 </v>
   <v name="genvec3">      0.00000000       0.00000000       0.25000000 </v>
   <v name="shift">      0.50000000       0.50000000       0.50000000 </v>
  </generation>
  <varray name="kpointlist" >
   <v>       0.12500000       0.12500000       0.12500000 </v>
   <v>       0.37500000       0.12500000       0.12500000 </v>
   <v>       0.12500000       0.37500000       0.12500000 </v>
   <v>       0.37500000       0.37500000       0.12500000 </v>
   <v>       0.12500000       0.12500000       0.37500000 </v>
   <v>       0.37500000       0.12500000       0.37500000 </v>
   <v>       0.12500000       0.37500000       0.37500000 </v>
   <v>       0.37500000       0.37500000       0.37500000 </v>
  </varray>
  <varray name="weights" >
   <v>       0.12500000 </v>
   <v>       0.12500000 </v>
   <v>       0.12500000 </v>
   <v>       0.12500000 </v>
   <v>       0.12500000 </v>
   <v>       0.12500000 </v>
   <v>       0.12500000 </v>
   <v>       0.12500000 </v>
  </varray>
  <varray name="tetrahedronlist"  type="int" >
   <v type="int" >        2        1        2        4        5 </v>
   <v type="int" >        2        1        3        4        5 </v>
   <v type="int" >        2        3        4        5        7 </v>
   <v type="int" >        2        2        4        5        6 </v>
   <v type="int" >        2        4        5        6        8 </v>
   <v type="int" >        2        4        5        7        8 </v>
   <v type="int" >        2        2        2        4        6 </v>
   <v type="int" >        2        2        4        4        6 </v>
   <v type="int" >        2        4        4        6        8 </v>
   <v type="int" >        2        2        4        6        6 </v>
   <v type="int" >        2        4        6        6        8 </v>
   <v type="int" >        2        4        6        8        8 </v>
   <v type="int" >        2        1        2        3        6 </v>
   <v type="int" >        2        2        3        4        6 </v>
   <v type="int" >        2        3        4        6        8 </v>
   <v type="int" >        2        1        3        5        6 </v>
   <v type="int" >        2        3        5        6        7 </v>
   <v type="int" >        2        3        6        7        8 </v>
   <v type="int" >        2        1        1        3        5 </v>
   <v type="int" >        2        1        3        3        5 </v>
   <v type="int" >        2        3        3        5        7 </v>
   <v type="int" >        2        1        3        5        5 </v>
   <v type="int" >        2        3        5        5        7 </v>
   <v type="int" >        2        3        5        7        7 </v>
   <v type="int" >        2        3        4        4        7 </v>
   <v type="int" >        2        3        3        4        7 </v>
   <v type="int" >        2        3        4        7        7 </v>
   <v type="int" >        2        4        4        7        8 </v>
   <v type="int" >        2        4        7        8        8 </v>
   <v type="int" >        2        4        7        7        8 </v>
   <v type="int" >        4        4        4        4        8 </v>
   <v type="int" >        4        4        4        8        8 </v>
   <v type="int" >        4        4        8        8        8 </v>
   <v type="int" >        2        3        3        4        8 </v>
   <v type="int" >        2        3        4        4        8 </v>
   <v type="int" >        2        3        4        8        8 </v>
   <v type="int" >        2        3        3        7        8 </v>
   <v type="int" >        2        3        7        7        8 </v>
   <v type="int" >        2        3        7        8        8 </v>
   <v type="int" >        4        3        3        3        7 </v>
   <v type="int" >        4        3        3        7        7 </v>
   <v type="int" >        4        3        7        7        7 </v>
   <v type="int" >        2        2        3        4        7 </v>
   <v type="int" >        2        1        2        3        7 </v>
   <v type="int" >        2        1        2        5        7 </v>
   <v type="int" >        2        2        4        7        8 </v>
   <v type="int" >        2        2        6        7        8 </v>
   <v type="int" >        2        2        5        6        7 </v>
   <v type="int" >        2        2        4        4        8 </v>
   <v type="int" >        2        2        2        4        8 </v>
   <v type="int" >        2        2        2        6        8 </v>
   <v type="int" >        2        2        4        8        8 </v>
   <v type="int" >        2        2        6        8        8 </v>
   <v type="int" >        2        2        6        6        8 </v>
   <v type="int" >        2        1        3        4        8 </v>
   <v type="int" >        2        1        2        4        8 </v>
   <v type="int" >        2        1        2        6        8 </v>
   <v type="int" >        2        1        3        7        8 </v>
   <v type="int" >        2        1        5        7        8 </v>
   <v type="int" >        2        1        5        6        8 </v>
   <v type="int" >        2        1        3        3        7 </v>
   <v type="int" >        2        1        1        3        7 </v>
   <v type="int" >        2        1        1        5        7 </v>
   <v type="int" >        2        1        3        7        7 </v>
   <v type="int" >        2        1        5        7        7 </v>
   <v type="int" >        2        1        5        5        7 </v>
   <v type="int" >        2        1        2        2        5 </v>
   <v type="int" >        2        1        1        2        5 </v>
   <v type="int" >        2        1        2        5        5 </v>
   <v type="int" >        2        2        2        5        6 </v>
   <v type="int" >        2        2        5        6        6 </v>
   <v type="int" >        2        2        5        5        6 </v>
   <v type="int" >        4        2        2        2        6 </v>
   <v type="int" >        4        2        2        6        6 </v>
   <v type="int" >        4        2        6        6        6 </v>
   <v type="int" >        2        1        1        2        6 </v>
   <v type="int" >        2        1        2        2        6 </v>
   <v type="int" >        2        1        2        6        6 </v>
   <v type="int" >        2        1        1        5        6 </v>
   <v type="int" >        2        1        5        5        6 </v>
   <v type="int" >        2        1        5        6        6 </v>
   <v type="int" >        4        1        1        1        5 </v>
   <v type="int" >        4        1        1        5        5 </v>
   <v type="int" >        4        1        5        5        5 </v>
   <v type="int" >        2        5        5        6        8 </v>
   <v type="int" >        2        5        5        7        8 </v>
   <v type="int" >        2        5        7        7        8 </v>
   <v type="int" >        2        5        6        6        8 </v>
   <v type="int" >        2        5        6        8        8 </v>
   <v type="int" >        2        5        7        8        8 </v>
   <v type="int" >        4        6        6        6        8 </v>
   <v type="int" >        4        6        6        8        8 </v>
   <v type="int" >        4        6        8        8        8 </v>
   <v type="int" >        2        5        6        6        7 </v>
   <v type="int" >        2        6        6        7        8 </v>
   <v type="int" >        2        6        7        8        8 </v>
   <v type="int" >        2        5        5        6        7 </v>
   <v type="int" >        2        5        6        7        7 </v>
   <v type="int" >        2        6        7        7        8 </v>
   <v type="int" >        4        5        5        5        7 </v>
   <v type="int" >        4        5        5        7        7 </v>
   <v type="int" >        4        5        7        7        7 </v>
   <v type="int" >        4        7        7        8        8 </v>
   <v type="int" >        4        7        7        7        8 </v>
   <v type="int" >        4        7        8        8        8 </v>
   <v type="int" >        6        8        8        8        8 </v>
   <v type="int" >        6        7        7        7        7 </v>
   <v type="int" >        4        5        5        6        6 </v>
   <v type="int" >        4        5        5        5        6 </v>
   <v type="int" >        4        5        6        6        6 </v>
   <v type="int" >        6        6        6        6        6 </v>
   <v type="int" >        6        5        5        5        5 </v>
   <v type="int" >        2        1        1        2        4 </v>
   <v type="int" >        2        1        1        3        4 </v>
   <v type="int" >        2        1        3        3        4 </v>
   <v type="int" >        2        1        2        2        4 </v>
   <v type="int" >        2        1        2        4        4 </v>
   <v type="int" >        2        1        3        4        4 </v>
   <v type="int" >        4        2        2        2        4 </v>
   <v type="int" >        4        2        2        4        4 </v>
   <v type="int" >        4        2        4        4        4 </v>
   <v type="int" >        2        1        2        2        3 </v>
   <v type="int" >        2        2        2        3        4 </v>
   <v type="int" >        2        2        3        4        4 </v>
   <v type="int" >        2        1        1        2        3 </v>
   <v type="int" >        2        1        2        3        3 </v>
   <v type="int" >        2        2        3        3        4 </v>
   <v type="int" >        4        1        1        1        3 </v>
   <v type="int" >        4        1        1        3        3 </v>
   <v type="int" >        4        1        3        3        3 </v>
   <v type="int" >        4        3        3        4        4 </v>
   <v type="int" >        4        3        3        3        4 </v>
   <v type="int" >        4        3        4        4        4 </v>
   <v type="int" >        6        4        4        4        4 </v>
   <v type="int" >        6        3        3        3        3 </v>
   <v type="int" >        4        1        1        2        2 </v>
   <v type="int" >        4        1        1        1        2 </v>
   <v type="int" >        4        1        2        2        2 </v>
   <v type="int" >        6        2        2        2        2 </v>
   <v type="int" >        6        1        1        1        1 </v>
  </varray>
  <i name="volumeweight">      0.00260417 </i>
 </kpoints>
 <parameters>
  <separator name="general" >
   <i type="string" name="SYSTEM">unknown system</i>
   <i type="logical" name="LCOMPAT"> F  </i>
  </separator>
  <separator name="electronic" >
   <i type="string" name="PREC">accura</i>
   <i name="ENMAX">    420.00000000</i>
   <i name="ENAUG">    628.94500000</i>
   <i name="EDIFF">      0.00002000</i>
   <i type="int" name="IALGO">    68</i>
   <i type="int" name="IWAVPR">    11</i>
   <i type="int" name="NBANDS">    48</i>
   <i name="NELECT">     76.00000000</i>
   <i type="int" name="TURBO">     0</i>
   <i type="int" name="IRESTART">     0</i>
   <i type="int" name="NREBOOT">     0</i>
   <i type="int" name="NMIN">     0</i>
   <i name="EREF">      0.00000000</i>
   <separator name="electronic smearing" >
    <i type="int" name="ISMEAR">    -5</i>
    <i name="SIGMA">      0.20000000</i>
    <i name="KSPACING">      0.50000000</i>
    <i type="logical" name="KGAMMA"> T  </i>
   </separator>
   <separator name="electronic projectors" >
    <i type="logical" name="LREAL"> T  </i>
    <v name="ROPT">     -0.00025000     -0.00025000     -0.00025000</v>
    <i type="int" name="LMAXPAW">  -100</i>
    <i type="int" name="LMAXMIX">     2</i>
    <i type="logical" name="NLSPLINE"> F  </i>
   </separator>
   <separator name="electronic startup" >
    <i type="int" name="ISTART">     0</i>
    <i type="int" name="ICHARG">     2</i>
    <i type="int" name="INIWAV">     1</i>
   </separator>
   <separator name="electronic spin" >
    <i type="int" name="ISPIN">     1</i>
    <i type="logical" name="LNONCOLLINEAR"> F  </i>
    <v name="MAGMOM">      1.00000000      1.00000000      1.00000000      1.00000000      1.00000000      1.00000000      1.00000000      1.00000000      1.00000000      1.00000000      1.00000000      1.00000000      1.00000000      1.00000000      1.00000000      1.00000000</v>
    <i name="NUPDOWN">     -1.00000000</i>
    <i type="logical" name="LSORBIT"> F  </i>
    <v name="SAXIS">      0.00000000      0.00000000      1.00000000</v>
    <i type="logical" name="LSPIRAL"> F  </i>
    <v name="QSPIRAL">      0.00000000      0.00000000      0.00000000</v>
    <i type="logical" name="LZEROZ"> F  </i>
   </separator>
   <separator name="electronic exchange-correlation" >
    <i type="logical" name="LASPH"> F  </i>
    <i type="logical" name="LMETAGGA"> F  </i>
   </separator>
   <separator name="electronic convergence" >
    <i type="int" name="NELM">   100</i>
    <i type="int" name="NELMDL">    -5</i>
    <i type="int" name="NELMIN">     2</i>
    <i name="ENINI">    420.00000000</i>
    <separator name="electronic convergence detail" >
     <i type="logical" name="LDIAG"> T  </i>
     <i type="logical" name="LSUBROT"> F  </i>
     <i name="WEIMIN">      0.00100000</i>
     <i name="EBREAK">      0.00000010</i>
     <i name="DEPER">      0.30000000</i>
     <i type="int" name="NRMM">     4</i>
     <i name="TIME">      0.40000000</i>
    </separator>
   </separator>
   <separator name="electronic mixer" >
    <i name="AMIX">      0.40000000</i>
    <i name="BMIX">      1.00000000</i>
    <i name="AMIN">      0.10000000</i>
    <i name="AMIX_MAG">      1.60000000</i>
    <i name="BMIX_MAG">      1.00000000</i>
    <separator name="electronic mixer details" >
     <i type="int" name="IMIX">     4</i>
     <i type="logical" name="MIXFIRST"> F  </i>
     <i type="int" name="MAXMIX">   -45</i>
     <i name="WC">    100.00000000</i>
     <i type="int" name="INIMIX">     1</i>
     <i type="int" name="MIXPRE">     1</i>
     <i type="int" name="MREMOVE">     5</i>
    </separator>
   </separator>
   <separator name="electronic dipolcorrection" >
    <i type="logical" name="LDIPOL"> F  </i>
    <i type="logical" name="LMONO"> F  </i>
    <i type="int" name="IDIPOL">     0</i>
    <i name="EPSILON">      1.00000000</i>
    <v name="DIPOL">   -100.00000000   -100.00000000   -100.00000000</v>
    <i name="EFIELD">      0.00000000</i>
   </separator>
  </separator>
  <separator name="grids" >
   <i type="int" name="NGX">    48</i>
   <i type="int" name="NGY">    40</i>
   <i type="int" name="NGZ">    48</i>
   <i type="int" name="NGXF">    96</i>
   <i type="int" name="NGYF">    80</i>
   <i type="int" name="NGZF">    96</i>
   <i type="logical" name="ADDGRID"> F  </i>
  </separator>
  <separator name="ionic" >
   <i type="int" name="NSW">   100</i>
   <i type="int" name="IBRION">     2</i>
   <i type="int" name="MDALGO">     0</i>
   <i type="int" name="ISIF">     3</i>
   <i name="PSTRESS">      0.00000000</i>
   <i name="EDIFFG">      0.00020000</i>
   <i type="int" name="NFREE">     1</i>
   <i name="POTIM">      0.50000000</i>
   <i name="SMASS">     -3.00000000</i>
   <i name="SCALEE">      1.00000000</i>
  </separator>
  <separator name="ionic md" >
   <i name="TEBEG">      0.00010000</i>
   <i name="TEEND">      0.00010000</i>
   <i type="int" name="NBLOCK">     1</i>
   <i type="int" name="KBLOCK">   100</i>
   <i type="int" name="NPACO">   256</i>
   <i name="APACO">     16.00000000</i>
  </separator>
  <separator name="symmetry" >
   <i type="int" name="ISYM">     2</i>
   <i name="SYMPREC">      0.00001000</i>
  </separator>
  <separator name="dos" >
   <i type="int" name="LORBIT">     0</i>
   <v name="RWIGS">     -1.00000000     -1.00000000     -1.00000000</v>
   <i type="int" name="NEDOS">   301</i>
   <i name="EMIN">     10.00000000</i>
   <i name="EMAX">    -10.00000000</i>
   <i name="EFERMI">      0.00000000</i>
  </separator>
  <separator name="writing" >
   <i type="int" name="NWRITE">     2</i>
   <i type="logical" name="LWAVE"> F  </i>
   <i type="logical" name="LDOWNSAMPLE"> F  </i>
   <i type="logical" name="LCHARG"> F  </i>
   <i type="logical" name="LPARD"> F  </i>
   <i type="logical" name="LVTOT"> F  </i>
   <i type="logical" name="LVHAR"> F  </i>
   <i type="logical" name="LELF"> F  </i>
   <i type="logical" name="LOPTICS"> F  </i>
   <v name="STM">      0.00000000      0.00000000      0.00000000      0.00000000      0.00000000      0.00000000      0.00000000</v>
  </separator>
  <separator name="performance" >
   <i type="int" name="NPAR">     4</i>
   <i type="int" name="NSIM">     4</i>
   <i type="int" name="NBLK">    -1</i>
   <i type="logical" name="LPLANE"> T  </i>
   <i type="logical" name="LSCALAPACK"> T  </i>
   <i type="logical" name="LSCAAWARE"> F  </i>
   <i type="logical" name="LSCALU"> F  </i>
   <i type="logical" name="LASYNC"> F  </i>
   <i type="logical" name="LORBITALREAL"> F  </i>
  </separator>
  <separator name="miscellaneous" >
   <i type="int" name="IDIOT">     3</i>
   <i type="int" name="ISPECIAL">     0</i>
   <i type="logical" name="LMUSIC"> F  </i>
   <v name="POMASS">     30.97400000     32.06600000      7.01000000</v>
   <v name="DARWINR">      0.00000000      0.00000000      0.00000000</v>
   <v name="DARWINV">      1.00000000      1.00000000      1.00000000</v>
   <i type="logical" name="LCORR"> T  </i>
  </separator>
  <i type="logical" name="GGA_COMPAT"> T  </i>
  <i type="logical" name="LBERRY"> F  </i>
  <i type="int" name="ICORELEVEL">     0</i>
  <i type="logical" name="LDAU"> F  </i>
  <i type="int" name="I_CONSTRAINED_M">     0</i>
  <separator name="electronic exchange-correlation" >
   <i type="string" name="GGA">--</i>
   <i type="int" name="VOSKOWN">     0</i>
   <i type="logical" name="LHFCALC"> F  </i>
   <i type="string" name="PRECFOCK"></i>
   <i type="logical" name="LSYMGRAD"> F  </i>
   <i type="logical" name="LHFONE"> F  </i>
   <i type="logical" name="LRHFCALC"> F  </i>
   <i type="logical" name="LTHOMAS"> F  </i>
   <i type="logical" name="LMODELHF"> F  </i>
   <i name="ENCUT4O">     -1.00000000</i>
   <i type="int" name="EXXOEP">     0</i>
   <i type="int" name="FOURORBIT">     0</i>
   <i name="AEXX">      0.00000000</i>
   <i name="HFALPHA">      0.00000000</i>
   <i name="MCALPHA">      0.00000000</i>
   <i name="ALDAX">      1.00000000</i>
   <i name="AGGAX">      1.00000000</i>
   <i name="ALDAC">      1.00000000</i>
   <i name="AGGAC">      1.00000000</i>
   <i type="int" name="NKREDX">     1</i>
   <i type="int" name="NKREDY">     1</i>
   <i type="int" name="NKREDZ">     1</i>
   <i type="logical" name="SHIFTRED"> F  </i>
   <i type="logical" name="ODDONLY"> F  </i>
   <i type="logical" name="EVENONLY"> F  </i>
   <i type="int" name="LMAXFOCK">     0</i>
   <i type="int" name="NMAXFOCKAE">     0</i>
   <i type="logical" name="LFOCKAEDFT"> F  </i>
   <i name="HFSCREEN">      0.00000000</i>
   <i name="HFSCREENC">      0.00000000</i>
   <i type="int" name="NBANDSGWLOW">     0</i>
  </separator>
  <separator name="vdW DFT" >
   <i type="logical" name="LUSE_VDW"> F  </i>
   <i name="Zab_VDW">     -0.84910000</i>
   <i name="PARAM1">      0.12340000</i>
   <i name="PARAM2">      1.00000000</i>
   <i name="PARAM3">      0.00000000</i>
  </separator>
  <separator name="model GW" >
   <i type="int" name="MODEL_GW">     0</i>
   <i name="MODEL_EPS0">     10.57740859</i>
   <i name="MODEL_ALPHA">      1.00000000</i>
  </separator>
  <separator name="linear response parameters" >
   <i type="logical" name="LEPSILON"> F  </i>
   <i type="logical" name="LRPA"> F  </i>
   <i type="logical" name="LNABLA"> F  </i>
   <i type="logical" name="LVEL"> F  </i>
   <i type="int" name="KINTER">     0</i>
   <i name="CSHIFT">      0.10000000</i>
   <i name="OMEGAMAX">     -1.00000000</i>
   <i name="DEG_THRESHOLD">      0.00200000</i>
   <i name="RTIME">     -0.10000000</i>
   <i name="WPLASMAI">      0.00000000</i>
   <v name="DFIELD">      0.00000000      0.00000000      0.00000000</v>
   <v name="WPLASMA">      0.00000000      0.00000000      0.00000000      0.00000000      0.00000000      0.00000000      0.00000000      0.00000000      0.00000000</v>
  </separator>
  <separator name="orbital magnetization" >
   <i type="logical" name="NUCIND"> F  </i>
   <v name="MAGPOS">      0.00000000      0.00000000      0.00000000</v>
   <i type="logical" name="LNICSALL"> T  </i>
   <i type="logical" name="ORBITALMAG"> F  </i>
   <i type="logical" name="LMAGBLOCH"> F  </i>
   <i type="logical" name="LCHIMAG"> F  </i>
   <i type="logical" name="LGAUGE"> T  </i>
   <i type="int" name="MAGATOM">     0</i>
   <v name="MAGDIPOL">      0.00000000      0.00000000      0.00000000</v>
   <v name="AVECCONST">      0.00000000      0.00000000      0.00000000</v>
  </separator>
  <separator name="response functions" >
   <i type="logical" name="LADDER"> F  </i>
   <i type="logical" name="LRPAFORCE"> F  </i>
   <i type="logical" name="LFXC"> F  </i>
   <i type="logical" name="LHARTREE"> T  </i>
   <i type="int" name="IBSE">     0</i>
   <v type="int" name="KPOINT">    -1     0     0     0</v>
   <i type="logical" name="LTCTE"> F  </i>
   <i type="logical" name="LTETE"> F  </i>
   <i type="logical" name="LTRIPLET"> F  </i>
   <i type="logical" name="LFXCEPS"> F  </i>
   <i type="logical" name="LFXHEG"> F  </i>
   <i type="int" name="NATURALO">     2</i>
   <i type="logical" name="L2ORDER"> F  </i>
   <i type="logical" name="LMP2LT"> F  </i>
   <i type="logical" name="LUSEW"> F  </i>
   <i name="ENCUTGW">     -2.00000000</i>
   <i name="ENCUTGWSOFT">     -2.00000000</i>
   <i name="ENCUTLF">     -1.00000000</i>
   <i type="int" name="LMAXMP2">    -1</i>
   <i name="SCISSOR">      0.00000000</i>
   <i type="int" name="NOMEGA">     0</i>
   <i type="int" name="NOMEGAR">     0</i>
   <i type="int" name="NBANDSGW">    -1</i>
   <i type="int" name="NBANDSO">    -1</i>
   <i type="int" name="NBANDSV">    -1</i>
   <i type="int" name="NELM">   100</i>
   <i type="int" name="NELMHF">     1</i>
   <i type="int" name="DIM">     3</i>
   <i type="int" name="ANTIRES">     0</i>
   <i name="OMEGAMAX">    -30.00000000</i>
   <i name="OMEGAMIN">    -30.00000000</i>
   <i name="OMEGATL">   -200.00000000</i>
   <i type="int" name="OMEGAGRID">   140</i>
   <i name="CSHIFT">     -0.10000000</i>
   <i type="logical" name="SELFENERGY"> F  </i>
   <i type="logical" name="LSPECTRAL"> F  </i>
   <i type="logical" name="LSPECTRALGW"> F  </i>
   <i type="logical" name="LSINGLES"> F  </i>
   <i type="logical" name="LFERMIGW"> F  </i>
   <i type="logical" name="ODDONLYGW"> F  </i>
   <i type="logical" name="EVENONLYGW"> F  </i>
   <i type="int" name="NKREDLFX">     1</i>
   <i type="int" name="NKREDLFY">     1</i>
   <i type="int" name="NKREDLFZ">     1</i>
   <i type="int" name="MAXMEM">  2800</i>
   <i type="int" name="TELESCOPE">     0</i>
   <i type="int" name="TAUPAR">     1</i>
   <i type="int" name="OMEGAPAR">    -1</i>
   <i name="LAMBDA">      1.00000000</i>
  </separator>
  <separator name="External order field" >
   <i name="OFIELD_KAPPA">      0.00000000</i>
   <v name="OFIELD_K">      0.00000000      0.00000000      0.00000000</v>
   <i name="OFIELD_Q6_NEAR">      0.00000000</i>
   <i name="OFIELD_Q6_FAR">      0.00000000</i>
   <i name="OFIELD_A">      0.00000000</i>
  </separator>
 </parameters>
 <atominfo>
  <atoms>      16 </atoms>
  <types>       3 </types>
  <array name="atoms" >
   <dimension dim="1">ion</dimension>
   <field type="string">element</field>
   <field type="int">atomtype</field>
   <set>
    <rc><c>P </c><c>   1</c></rc>
    <rc><c>P </c><c>   1</c></rc>
    <rc><c>S </c><c>   2</c></rc>
    <rc><c>S </c><c>   2</c></rc>
    <rc><c>S </c><c>   2</c></rc>
    <rc><c>S </c><c>   2</c></rc>
    <rc><c>S </c><c>   2</c></rc>
    <rc><c>S </c><c>   2</c></rc>
    <rc><c>S </c><c>   2</c></rc>
    <rc><c>S </c><c>   2</c></rc>
    <rc><c>Li</c><c>   3</c></rc>
    <rc><c>Li</c><c>   3</c></rc>
    <rc><c>Li</c><c>   3</c></rc>
    <rc><c>Li</c><c>   3</c></rc>
    <rc><c>Li</c><c>   3</c></rc>
    <rc><c>Li</c><c>   3</c></rc>
   </set>
  </array>
  <array name="atomtypes" >
   <dimension dim="1">type</dimension>
   <field type="int">atomspertype</field>
   <field type="string">element</field>
   <field>mass</field>
   <field>valence</field>
   <field type="string">pseudopotential</field>
   <set>
    <rc><c>   2</c><c>P </c><c>     30.97400000</c><c>      5.00000000</c><c>  PAW P 26Mar2009                       </c></rc>
    <rc><c>   8</c><c>S </c><c>     32.06600000</c><c>      6.00000000</c><c>  PAW S 27Mar2009                       </c></rc>
    <rc><c>   6</c><c>Li</c><c>      7.01000000</c><c>      3.00000000</c><c>  PAW Li_sv 10Sep2004                   </c></rc>
   </set>
  </array>
 </atominfo>
 <structure name="initialpos" >
  <crystal>
   <varray name="basis" >
    <v>       7.16653700       0.00000000       0.00000000 </v>
    <v>       0.00000000       5.68242751       0.00000000 </v>
    <v>       0.00000000       0.00000000       6.92635523 </v>
   </varray>
   <i name="volume">    282.06422902 </i>
   <varray name="rec_basis" >
    <v>       0.13953741       0.00000000       0.00000000 </v>
    <v>       0.00000000       0.17598113       0.00000000 </v>
    <v>       0.00000000       0.00000000       0.14437608 </v>
   </varray>
  </crystal>
  <varray name="positions" >
   <v>       0.00000000       0.75355612       0.27501048 </v>
   <v>       0.50000000       0.24644388       0.77501048 </v>
   <v>       0.23094519       0.54151807       0.24709611 </v>
   <v>       0.26905481       0.45848193       0.74709611 </v>
   <v>       0.73094519       0.45848193       0.74709611 </v>
   <v>       0.76905481       0.54151807       0.24709611 </v>
   <v>       0.00000000       0.93980624       0.02130888 </v>
   <v>       0.50000000       0.06019376       0.52130888 </v>
   <v>       0.00000000       0.94255803       0.51891291 </v>
   <v>       0.50000000       0.05744197       0.01891291 </v>
   <v>       0.00000000       0.37599568       0.98640183 </v>
   <v>       0.50000000       0.62400432       0.48640183 </v>
   <v>       0.28297476       0.78102388       0.94981368 </v>
   <v>       0.21702524       0.21897612       0.44981368 </v>
   <v>       0.78297476       0.21897612       0.44981368 </v>
   <v>       0.71702524       0.78102388       0.94981368 </v>
  </varray>
 </structure>
 <calculation>
  <scstep>
   <time name="dav">    0.19    0.20</time>
   <time name="total">    0.21    0.23</time>
   <energy>
    <i name="alphaZ">     69.95909506 </i>
    <i name="ewald">  -2741.94693423 </i>
    <i name="hartreedc">   -621.32517720 </i>
    <i name="XCdc">    182.20289015 </i>
    <i name="pawpsdc">   2494.22442938 </i>
    <i name="pawaedc">  -2541.12215007 </i>
    <i name="eentropy">      0.00000000 </i>
    <i name="bandstr">   -119.75853088 </i>
    <i name="atom">   3769.08782378 </i>
    <i name="e_fr_energy">    491.32144600 </i>
    <i name="e_wo_entrp">    491.32144600 </i>
    <i name="e_0_energy">    491.32144600 </i>
   </energy>
  </scstep>
  <scstep>
   <time name="dav">    0.19    0.19</time>
   <time name="total">    0.19    0.19</time>
   <energy>
    <i name="e_fr_energy">    -11.65056081 </i>
    <i name="e_wo_entrp">    -11.65056081 </i>
    <i name="e_0_energy">    -11.65056081 </i>
   </energy>
  </scstep>
  <scstep>
   <time name="dav">    0.21    0.21</time>
   <time name="total">    0.21    0.21</time>
   <energy>
    <i name="e_fr_energy">    -71.75731641 </i>
    <i name="e_wo_entrp">    -71.75731641 </i>
    <i name="e_0_energy">    -71.75731641 </i>
   </energy>
  </scstep>
  <scstep>
   <time name="dav">    0.26    0.26</time>
   <time name="total">    0.26    0.27</time>
   <energy>
    <i name="e_fr_energy">    -78.62691026 </i>
    <i name="e_wo_entrp">    -78.62691026 </i>
    <i name="e_0_energy">    -78.62691026 </i>
   </energy>
  </scstep>
  <scstep>
   <time name="dav">    0.23    0.23</time>
   <time name="total">    0.25    0.25</time>
   <energy>
    <i name="e_fr_energy">    -79.44771056 </i>
    <i name="e_wo_entrp">    -79.44771056 </i>
    <i name="e_0_energy">    -79.44771056 </i>
   </energy>
  </scstep>
  <scstep>
   <time name="diag">    0.05    0.05</time>
   <time name="diis">    0.08    0.08</time>
   <time name="orth">    0.01    0.01</time>
   <time name="total">    0.16    0.16</time>
   <energy>
    <i name="e_fr_energy">    -77.22300251 </i>
    <i name="e_wo_entrp">    -77.22300251 </i>
    <i name="e_0_energy">    -77.22300251 </i>
   </energy>
  </scstep>
  <scstep>
   <time name="diag">    0.05    0.05</time>
   <time name="diis">    0.08    0.08</time>
   <time name="orth">    0.01    0.01</time>
   <time name="total">    0.16    0.16</time>
   <energy>
    <i name="e_fr_energy">    -76.76221347 </i>
    <i name="e_wo_entrp">    -76.76221347 </i>
    <i name="e_0_energy">    -76.76221347 </i>
   </energy>
  </scstep>
  <scstep>
   <time name="diag">    0.05    0.05</time>
   <time name="diis">    0.10    0.10</time>
   <time name="orth">    0.01    0.01</time>
   <time name="total">    0.18    0.18</time>
   <energy>
    <i name="e_fr_energy">    -76.67753424 </i>
    <i name="e_wo_entrp">    -76.67753424 </i>
    <i name="e_0_energy">    -76.67753424 </i>
   </energy>
  </scstep>
  <scstep>
   <time name="diag">    0.05    0.05</time>
   <time name="diis">    0.09    0.09</time>
   <time name="orth">    0.01    0.01</time>
   <time name="total">    0.17    0.17</time>
   <energy>
    <i name="e_fr_energy">    -76.67116216 </i>
    <i name="e_wo_entrp">    -76.67116216 </i>
    <i name="e_0_energy">    -76.67116216 </i>
   </energy>
  </scstep>
  <scstep>
   <time name="diag">    0.05    0.05</time>
   <time name="diis">    0.10    0.10</time>
   <time name="orth">    0.01    0.01</time>
   <time name="total">    0.18    0.18</time>
   <energy>
    <i name="e_fr_energy">    -76.67107774 </i>
    <i name="e_wo_entrp">    -76.67107774 </i>
    <i name="e_0_energy">    -76.67107774 </i>
   </energy>
  </scstep>
  <scstep>
   <time name="diag">    0.05    0.05</time>
   <time name="diis">    0.11    0.11</time>
   <time name="orth">    0.01    0.01</time>
   <time name="total">    0.19    0.19</time>
   <energy>
    <i name="e_fr_energy">    -76.67139222 </i>
    <i name="e_wo_entrp">    -76.67139222 </i>
    <i name="e_0_energy">    -76.67139222 </i>
   </energy>
  </scstep>
  <scstep>
   <time name="diag">    0.05    0.05</time>
   <time name="diis">    0.10    0.10</time>
   <time name="orth">    0.01    0.01</time>
   <time name="total">    0.18    0.18</time>
   <energy>
    <i name="e_fr_energy">    -76.67154171 </i>
    <i name="e_wo_entrp">    -76.67154171 </i>
    <i name="e_0_energy">    -76.67154171 </i>
   </energy>
  </scstep>
  <scstep>
   <time name="diag">    0.05    0.05</time>
   <time name="diis">    0.07    0.07</time>
   <time name="orth">    0.01    0.01</time>
   <time name="total">    0.15    0.15</time>
   <energy>
    <i name="e_fr_energy">    -76.67161713 </i>
    <i name="e_wo_entrp">    -76.67161713 </i>
    <i name="e_0_energy">    -76.67161713 </i>
   </energy>
  </scstep>
  <scstep>
   <time name="diag">    0.05    0.05</time>
   <time name="diis">    0.08    0.08</time>
   <time name="orth">    0.01    0.01</time>
   <time name="total">    0.16    0.16</time>
   <energy>
    <i name="e_fr_energy">    -76.67165820 </i>
    <i name="e_wo_entrp">    -76.67165820 </i>
    <i name="e_0_energy">    -76.67165820 </i>
   </energy>
  </scstep>
  <scstep>
   <time name="diag">    0.05    0.05</time>
   <time name="diis">    0.06    0.06</time>
   <time name="orth">    0.01    0.01</time>
   <time name="total">    0.14    0.14</time>
   <energy>
    <i name="e_fr_energy">    -76.67167580 </i>
    <i name="e_wo_entrp">    -76.67167580 </i>
    <i name="e_0_energy">    -76.67167580 </i>
   </energy>
  </scstep>
  <scstep>
   <time name="diag">    0.05    0.05</time>
   <time name="diis">    0.06    0.06</time>
   <time name="orth">    0.01    0.01</time>
   <time name="total">    0.13    0.13</time>
   <energy>
    <i name="alphaZ">     69.95909506 </i>
    <i name="ewald">  -2741.94693423 </i>
    <i name="hartreedc">   -654.19083534 </i>
    <i name="XCdc">    185.67332857 </i>
    <i name="pawpsdc">   7392.51025484 </i>
    <i name="pawaedc">  -7442.50329968 </i>
    <i name="eentropy">      0.00000000 </i>
    <i name="bandstr">   -655.26111751 </i>
    <i name="atom">   3769.08782378 </i>
    <i name="e_fr_energy">    -76.67168450 </i>
    <i name="e_wo_entrp">    -76.67168450 </i>
    <i name="e_0_energy">    -76.67168450 </i>
   </energy>
  </scstep>
  <structure>
   <crystal>
    <varray name="basis" >
     <v>       7.16653700       0.00000000       0.00000000 </v>
     <v>       0.00000000       5.68242751       0.00000000 </v>
     <v>       0.00000000       0.00000000       6.92635523 </v>
    </varray>
    <i name="volume">    282.06422902 </i>
    <varray name="rec_basis" >
     <v>       0.13953741       0.00000000       0.00000000 </v>
     <v>       0.00000000       0.17598113       0.00000000 </v>
     <v>       0.00000000       0.00000000       0.14437608 </v>
    </varray>
   </crystal>
   <varray name="positions" >
    <v>       0.00000000       0.75355612       0.27501048 </v>
    <v>       0.50000000       0.24644388       0.77501048 </v>
    <v>       0.23094519       0.54151807       0.24709611 </v>
    <v>       0.26905481       0.45848193       0.74709611 </v>
    <v>       0.73094519       0.45848193       0.74709611 </v>
    <v>       0.76905481       0.54151807       0.24709611 </v>
    <v>       0.00000000       0.93980624       0.02130888 </v>
    <v>       0.50000000       0.06019376       0.52130888 </v>
    <v>       0.00000000       0.94255803       0.51891291 </v>
    <v>       0.50000000       0.05744197       0.01891291 </v>
    <v>       0.00000000       0.37599568       0.98640183 </v>
    <v>       0.50000000       0.62400432       0.48640183 </v>
    <v>       0.28297476       0.78102388       0.94981368 </v>
    <v>       0.21702524       0.21897612       0.44981368 </v>
    <v>       0.78297476       0.21897612       0.44981368 </v>
    <v>       0.71702524       0.78102388       0.94981368 </v>
   </varray>
  </structure>
  <varray name="forces" >
   <v>       0.00000000      -0.21013264      -0.02199502 </v>
   <v>       0.00000000       0.21013264      -0.02199502 </v>
   <v>      -0.01840957       0.23274265      -0.24642471 </v>
   <v>       0.01840957      -0.23274265      -0.24642471 </v>
   <v>      -0.01840957      -0.23274265      -0.24642471 </v>
   <v>       0.01840957       0.23274265      -0.24642471 </v>
   <v>       0.00000000       0.40173635       0.07893448 </v>
   <v>       0.00000000      -0.40173635       0.07893448 </v>
   <v>       0.00000000      -0.41547155       0.21065966 </v>
   <v>       0.00000000       0.41547155       0.21065966 </v>
   <v>       0.00000000      -0.14004288       0.05822392 </v>
   <v>       0.00000000       0.14004288       0.05822392 </v>
   <v>      -0.00545010      -0.24017398       0.08351320 </v>
   <v>       0.00545010       0.24017398       0.08351320 </v>
   <v>      -0.00545010       0.24017398       0.08351320 </v>
   <v>       0.00545010      -0.24017398       0.08351320 </v>
  </varray>
  <varray name="stress" >
   <v>      12.93585332       0.00000000       0.00000000 </v>
   <v>       0.00000000       2.77746369       0.00000000 </v>
   <v>       0.00000000       0.00000000       3.67109517 </v>
  </varray>
  <energy>
   <i name="e_fr_energy">    -76.67168450 </i>
   <i name="e_wo_entrp">    -76.67168450 </i>
   <i name="e_0_energy">      0.00000000 </i>
  </energy>
  <time name="totalsc">    3.12    3.14</time>
 </calculation>
 <calculation>
  <scstep>
   <time name="dav">    0.19    0.19</time>
   <time name="total">    0.21    0.21</time>
   <energy>
    <i name="alphaZ">     69.24476171 </i>
    <i name="ewald">  -2733.41832018 </i>
    <i name="hartreedc">   -651.19057794 </i>
    <i name="XCdc">    184.95974217 </i>
    <i name="pawpsdc">   7392.74406569 </i>
    <i name="pawaedc">  -7442.73837265 </i>
    <i name="eentropy">      0.00000000 </i>
    <i name="bandstr">   -665.43033676 </i>
    <i name="atom">   3769.08782378 </i>
    <i name="e_fr_energy">    -76.74121418 </i>
    <i name="e_wo_entrp">    -76.74121418 </i>
    <i name="e_0_energy">    -76.74121418 </i>
   </energy>
  </scstep>
  <scstep>
   <time name="diag">    0.05    0.05</time>
   <time name="diis">    0.09    0.09</time>
   <time name="orth">    0.01    0.01</time>
   <time name="total">    0.17    0.17</time>
   <energy>
    <i name="e_fr_energy">    -76.75088908 </i>
    <i name="e_wo_entrp">    -76.75088908 </i>
    <i name="e_0_energy">    -76.75088908 </i>
   </energy>
  </scstep>
  <scstep>
   <time name="diag">    0.05    0.05</time>
   <time name="diis">    0.12    0.12</time>
   <time name="orth">    0.01    0.01</time>
   <time name="total">    0.20    0.20</time>
   <energy>
    <i name="e_fr_energy">    -76.74342400 </i>
    <i name="e_wo_entrp">    -76.74342400 </i>
    <i name="e_0_energy">    -76.74342400 </i>
   </energy>
  </scstep>
  <scstep>
   <time name="diag">    0.05    0.05</time>
   <time name="diis">    0.11    0.11</time>
   <time name="orth">    0.01    0.01</time>
   <time name="total">    0.19    0.19</time>
   <energy>
    <i name="e_fr_energy">    -76.74159151 </i>
    <i name="e_wo_entrp">    -76.74159151 </i>
    <i name="e_0_energy">    -76.74159151 </i>
   </energy>
  </scstep>
  <scstep>
   <time name="diag">    0.05    0.05</time>
   <time name="diis">    0.12    0.12</time>
   <time name="orth">    0.01    0.01</time>
   <time name="total">    0.20    0.20</time>
   <energy>
    <i name="e_fr_energy">    -76.74177581 </i>
    <i name="e_wo_entrp">    -76.74177581 </i>
    <i name="e_0_energy">    -76.74177581 </i>
   </energy>
  </scstep>
  <scstep>
   <time name="diag">    0.05    0.05</time>
   <time name="diis">    0.11    0.11</time>
   <time name="orth">    0.01    0.01</time>
   <time name="total">    0.19    0.19</time>
   <energy>
    <i name="e_fr_energy">    -76.74189091 </i>
    <i name="e_wo_entrp">    -76.74189091 </i>
    <i name="e_0_energy">    -76.74189091 </i>
   </energy>
  </scstep>
  <scstep>
   <time name="diag">    0.05    0.05</time>
   <time name="diis">    0.11    0.11</time>
   <time name="orth">    0.01    0.01</time>
   <time name="total">    0.19    0.19</time>
   <energy>
    <i name="e_fr_energy">    -76.74193897 </i>
    <i name="e_wo_entrp">    -76.74193897 </i>
    <i name="e_0_energy">    -76.74193897 </i>
   </energy>
  </scstep>
  <scstep>
   <time name="diag">    0.05    0.05</time>
   <time name="diis">    0.08    0.08</time>
   <time name="orth">    0.01    0.01</time>
   <time name="total">    0.16    0.16</time>
   <energy>
    <i name="e_fr_energy">    -76.74196075 </i>
    <i name="e_wo_entrp">    -76.74196075 </i>
    <i name="e_0_energy">    -76.74196075 </i>
   </energy>
  </scstep>
  <scstep>
   <time name="diag">    0.05    0.05</time>
   <time name="diis">    0.08    0.08</time>
   <time name="orth">    0.01    0.01</time>
   <time name="total">    0.15    0.15</time>
   <energy>
    <i name="alphaZ">     69.24476171 </i>
    <i name="ewald">  -2733.41832018 </i>
    <i name="hartreedc">   -656.62776056 </i>
    <i name="XCdc">    185.37208152 </i>
    <i name="pawpsdc">   7299.57723643 </i>
    <i name="pawaedc">  -7349.64409479 </i>
    <i name="eentropy">      0.00000000 </i>
    <i name="bandstr">   -660.33370182 </i>
    <i name="atom">   3769.08782378 </i>
    <i name="e_fr_energy">    -76.74197391 </i>
    <i name="e_wo_entrp">    -76.74197391 </i>
    <i name="e_0_energy">    -76.74197391 </i>
   </energy>
  </scstep>
  <structure>
   <crystal>
    <varray name="basis" >
     <v>       7.21574697       0.00000000       0.00000000 </v>
     <v>       0.00000000       5.69080533       0.00000000 </v>
     <v>       0.00000000       0.00000000       6.93985259 </v>
    </varray>
    <i name="volume">    284.97402150 </i>
    <varray name="rec_basis" >
     <v>       0.13858579       0.00000000       0.00000000 </v>
     <v>       0.00000000       0.17572205       0.00000000 </v>
     <v>       0.00000000       0.00000000       0.14409528 </v>
    </varray>
   </crystal>
   <varray name="positions" >
    <v>       0.00000000       0.75177214       0.27485728 </v>
    <v>       0.50000000       0.24822786       0.77485728 </v>
    <v>       0.23082126       0.54349401       0.24537974 </v>
    <v>       0.26917874       0.45650599       0.74537974 </v>
    <v>       0.73082126       0.45650599       0.74537974 </v>
    <v>       0.76917874       0.54349401       0.24537974 </v>
    <v>       0.00000000       0.94321690       0.02185867 </v>
    <v>       0.50000000       0.05678310       0.52185867 </v>
    <v>       0.00000000       0.93903076       0.52038017 </v>
    <v>       0.50000000       0.06096924       0.02038017 </v>
    <v>       0.00000000       0.37480674       0.98680737 </v>
    <v>       0.50000000       0.62519326       0.48680737 </v>
    <v>       0.28293807       0.77898485       0.95039536 </v>
    <v>       0.21706193       0.22101515       0.45039536 </v>
    <v>       0.78293807       0.22101515       0.45039536 </v>
    <v>       0.71706193       0.77898485       0.95039536 </v>
   </varray>
  </structure>
  <varray name="forces" >
   <v>       0.00000000       0.15203990      -0.05281474 </v>
   <v>       0.00000000      -0.15203990      -0.05281474 </v>
   <v>      -0.05810141       0.12773462      -0.20249693 </v>
   <v>       0.05810141      -0.12773462      -0.20249693 </v>
   <v>      -0.05810141      -0.12773462      -0.20249693 </v>
   <v>       0.05810141       0.12773462      -0.20249693 </v>
   <v>       0.00000000       0.16182684       0.20135690 </v>
   <v>       0.00000000      -0.16182684       0.20135690 </v>
   <v>       0.00000000      -0.34586029       0.04715057 </v>
   <v>       0.00000000       0.34586029       0.04715057 </v>
   <v>       0.00000000      -0.12232268       0.05525484 </v>
   <v>       0.00000000       0.12232268       0.05525484 </v>
   <v>      -0.00913758      -0.11893592       0.07702315 </v>
   <v>       0.00913758       0.11893592       0.07702315 </v>
   <v>      -0.00913758       0.11893592       0.07702315 </v>
   <v>       0.00913758      -0.11893592       0.07702315 </v>
  </varray>
  <varray name="stress" >
   <v>       2.54064472       0.00000000       0.00000000 </v>
   <v>       0.00000000      -2.56154146       0.00000000 </v>
   <v>       0.00000000       0.00000000      -3.22040005 </v>
  </varray>
  <energy>
   <i name="e_fr_energy">    -76.74197391 </i>
   <i name="e_wo_entrp">    -76.74197391 </i>
   <i name="e_0_energy">      0.00000000 </i>
  </energy>
  <time name="totalsc">    1.84    1.85</time>
 </calculation>
 <calculation>
  <scstep>
   <time name="dav">    0.18    0.18</time>
   <time name="total">    0.20    0.20</time>
   <energy>
    <i name="alphaZ">     68.56351471 </i>
    <i name="ewald">  -2724.98431151 </i>
    <i name="hartreedc">   -653.91335730 </i>
    <i name="XCdc">    184.68740688 </i>
    <i name="pawpsdc">   7299.51290976 </i>
    <i name="pawaedc">  -7349.57975011 </i>
    <i name="eentropy">      0.00000000 </i>
    <i name="bandstr">   -670.13735476 </i>
    <i name="atom">   3769.08782378 </i>
    <i name="e_fr_energy">    -76.76311855 </i>
    <i name="e_wo_entrp">    -76.76311855 </i>
    <i name="e_0_energy">    -76.76311855 </i>
   </energy>
  </scstep>
  <scstep>
   <time name="diag">    0.05    0.05</time>
   <time name="diis">    0.09    0.09</time>
   <time name="orth">    0.01    0.01</time>
   <time name="total">    0.18    0.18</time>
   <energy>
    <i name="e_fr_energy">    -76.77103070 </i>
    <i name="e_wo_entrp">    -76.77103070 </i>
    <i name="e_0_energy">    -76.77103070 </i>
   </energy>
  </scstep>
  <scstep>
   <time name="diag">    0.05    0.05</time>
   <time name="diis">    0.12    0.12</time>
   <time name="orth">    0.01    0.01</time>
   <time name="total">    0.20    0.20</time>
   <energy>
    <i name="e_fr_energy">    -76.76471863 </i>
    <i name="e_wo_entrp">    -76.76471863 </i>
    <i name="e_0_energy">    -76.76471863 </i>
   </energy>
  </scstep>
  <scstep>
   <time name="diag">    0.05    0.05</time>
   <time name="diis">    0.11    0.11</time>
   <time name="orth">    0.01    0.01</time>
   <time name="total">    0.19    0.19</time>
   <energy>
    <i name="e_fr_energy">    -76.76308460 </i>
    <i name="e_wo_entrp">    -76.76308460 </i>
    <i name="e_0_energy">    -76.76308460 </i>
   </energy>
  </scstep>
  <scstep>
   <time name="diag">    0.05    0.05</time>
   <time name="diis">    0.12    0.12</time>
   <time name="orth">    0.01    0.01</time>
   <time name="total">    0.20    0.20</time>
   <energy>
    <i name="e_fr_energy">    -76.76327720 </i>
    <i name="e_wo_entrp">    -76.76327720 </i>
    <i name="e_0_energy">    -76.76327720 </i>
   </energy>
  </scstep>
  <scstep>
   <time name="diag">    0.05    0.05</time>
   <time name="diis">    0.11    0.11</time>
   <time name="orth">    0.01    0.01</time>
   <time name="total">    0.19    0.19</time>
   <energy>
    <i name="e_fr_energy">    -76.76339637 </i>
    <i name="e_wo_entrp">    -76.76339637 </i>
    <i name="e_0_energy">    -76.76339637 </i>
   </energy>
  </scstep>
  <scstep>
   <time name="diag">    0.05    0.05</time>
   <time name="diis">    0.11    0.11</time>
   <time name="orth">    0.01    0.01</time>
   <time name="total">    0.19    0.19</time>
   <energy>
    <i name="e_fr_energy">    -76.76344727 </i>
    <i name="e_wo_entrp">    -76.76344727 </i>
    <i name="e_0_energy">    -76.76344727 </i>
   </energy>
  </scstep>
  <scstep>
   <time name="diag">    0.05    0.05</time>
   <time name="diis">    0.08    0.08</time>
   <time name="orth">    0.01    0.01</time>
   <time name="total">    0.16    0.16</time>
   <energy>
    <i name="e_fr_energy">    -76.76347272 </i>
    <i name="e_wo_entrp">    -76.76347272 </i>
    <i name="e_0_energy">    -76.76347272 </i>
   </energy>
  </scstep>
  <scstep>
   <time name="diag">    0.05    0.05</time>
   <time name="diis">    0.08    0.08</time>
   <time name="orth">    0.01    0.01</time>
   <time name="total">    0.14    0.14</time>
   <energy>
    <i name="alphaZ">     68.56351471 </i>
    <i name="ewald">  -2724.98431151 </i>
    <i name="hartreedc">   -659.20889347 </i>
    <i name="XCdc">    185.08956271 </i>
    <i name="pawpsdc">   7210.62374261 </i>
    <i name="pawaedc">  -7260.75795162 </i>
    <i name="eentropy">      0.00000000 </i>
    <i name="bandstr">   -665.17697099 </i>
    <i name="atom">   3769.08782378 </i>
    <i name="e_fr_energy">    -76.76348378 </i>
    <i name="e_wo_entrp">    -76.76348378 </i>
    <i name="e_0_energy">    -76.76348378 </i>
   </energy>
  </scstep>
  <structure>
   <crystal>
    <varray name="basis" >
     <v>       7.26339258       0.00000000       0.00000000 </v>
     <v>       0.00000000       5.69891682       0.00000000 </v>
     <v>       0.00000000       0.00000000       6.95292089 </v>
    </varray>
    <i name="volume">    287.80552304 </i>
    <varray name="rec_basis" >
     <v>       0.13767671       0.00000000       0.00000000 </v>
     <v>       0.00000000       0.17547194       0.00000000 </v>
     <v>       0.00000000       0.00000000       0.14382445 </v>
    </varray>
   </crystal>
   <varray name="positions" >
    <v>       0.00000000       0.75004741       0.27470924 </v>
    <v>       0.50000000       0.24995259       0.77470924 </v>
    <v>       0.23070209       0.54540432       0.24372117 </v>
    <v>       0.26929791       0.45459568       0.74372117 </v>
    <v>       0.73070209       0.45459568       0.74372117 </v>
    <v>       0.76929791       0.54540432       0.24372117 </v>
    <v>       0.00000000       0.94651427       0.02238994 </v>
    <v>       0.50000000       0.05348573       0.52238994 </v>
    <v>       0.00000000       0.93562065       0.52179803 </v>
    <v>       0.50000000       0.06437935       0.02179803 </v>
    <v>       0.00000000       0.37365729       0.98719925 </v>
    <v>       0.50000000       0.62634271       0.48719925 </v>
    <v>       0.28290279       0.77701355       0.95095745 </v>
    <v>       0.21709721       0.22298645       0.45095745 </v>
    <v>       0.78290279       0.22298645       0.45095745 </v>
    <v>       0.71709721       0.77701355       0.95095745 </v>
   </varray>
  </structure>
  <varray name="forces" >
   <v>       0.00000000       0.49085818      -0.07471978 </v>
   <v>       0.00000000      -0.49085818      -0.07471978 </v>
   <v>      -0.10227733       0.03199443      -0.16149097 </v>
   <v>       0.10227733      -0.03199443      -0.16149097 </v>
   <v>      -0.10227733      -0.03199443      -0.16149097 </v>
   <v>       0.10227733       0.03199443      -0.16149097 </v>
   <v>       0.00000000      -0.06538067       0.31266841 </v>
   <v>       0.00000000       0.06538067       0.31266841 </v>
   <v>       0.00000000      -0.29453145      -0.10032618 </v>
   <v>       0.00000000       0.29453145      -0.10032618 </v>
   <v>       0.00000000      -0.10189425       0.05464067 </v>
   <v>       0.00000000       0.10189425       0.05464067 </v>
   <v>      -0.01589348      -0.00789976       0.06535941 </v>
   <v>       0.01589348       0.00789976       0.06535941 </v>
   <v>      -0.01589348       0.00789976       0.06535941 </v>
   <v>       0.01589348      -0.00789976       0.06535941 </v>
  </varray>
  <varray name="stress" >
   <v>      -6.62536444       0.00000000       0.00000000 </v>
   <v>       0.00000000      -7.31282534       0.00000000 </v>
   <v>       0.00000000       0.00000000      -9.30371156 </v>
  </varray>
  <energy>
   <i name="e_fr_energy">    -76.76348378 </i>
   <i name="e_wo_entrp">    -76.76348378 </i>
   <i name="e_0_energy">      0.00000000 </i>
  </energy>
  <time name="totalsc">    1.83    1.84</time>
 </calculation>
 <calculation>
  <scstep>
   <time name="dav">    0.17    0.17</time>
   <time name="total">    0.20    0.20</time>
   <energy>
    <i name="alphaZ">     68.88434292 </i>
    <i name="ewald">  -2724.42955886 </i>
    <i name="hartreedc">   -663.87663080 </i>
    <i name="XCdc">    185.50319864 </i>
    <i name="pawpsdc">   7210.57807341 </i>
    <i name="pawaedc">  -7260.71226142 </i>
    <i name="eentropy">      0.00000000 </i>
    <i name="bandstr">   -661.80882544 </i>
    <i name="atom">   3769.08782378 </i>
    <i name="e_fr_energy">    -76.77383776 </i>
    <i name="e_wo_entrp">    -76.77383776 </i>
    <i name="e_0_energy">    -76.77383776 </i>
   </energy>
  </scstep>
  <scstep>
   <time name="diag">    0.05    0.05</time>
   <time name="diis">    0.09    0.09</time>
   <time name="orth">    0.01    0.01</time>
   <time name="total">    0.17    0.17</time>
   <energy>
    <i name="e_fr_energy">    -76.80670459 </i>
    <i name="e_wo_entrp">    -76.80670459 </i>
    <i name="e_0_energy">    -76.80670459 </i>
   </energy>
  </scstep>
  <scstep>
   <time name="diag">    0.05    0.05</time>
   <time name="diis">    0.11    0.11</time>
   <time name="orth">    0.01    0.01</time>
   <time name="total">    0.19    0.19</time>
   <energy>
    <i name="e_fr_energy">    -76.80163596 </i>
    <i name="e_wo_entrp">    -76.80163596 </i>
    <i name="e_0_energy">    -76.80163596 </i>
   </energy>
  </scstep>
  <scstep>
   <time name="diag">    0.05    0.05</time>
   <time name="diis">    0.10    0.10</time>
   <time name="orth">    0.01    0.01</time>
   <time name="total">    0.18    0.18</time>
   <energy>
    <i name="e_fr_energy">    -76.79990026 </i>
    <i name="e_wo_entrp">    -76.79990026 </i>
    <i name="e_0_energy">    -76.79990026 </i>
   </energy>
  </scstep>
  <scstep>
   <time name="diag">    0.05    0.05</time>
   <time name="diis">    0.12    0.12</time>
   <time name="orth">    0.01    0.01</time>
   <time name="total">    0.20    0.20</time>
   <energy>
    <i name="e_fr_energy">    -76.80014389 </i>
    <i name="e_wo_entrp">    -76.80014389 </i>
    <i name="e_0_energy">    -76.80014389 </i>
   </energy>
  </scstep>
  <scstep>
   <time name="diag">    0.05    0.05</time>
   <time name="diis">    0.11    0.11</time>
   <time name="orth">    0.01    0.01</time>
   <time name="total">    0.19    0.19</time>
   <energy>
    <i name="e_fr_energy">    -76.80024106 </i>
    <i name="e_wo_entrp">    -76.80024106 </i>
    <i name="e_0_energy">    -76.80024106 </i>
   </energy>
  </scstep>
  <scstep>
   <time name="diag">    0.05    0.05</time>
   <time name="diis">    0.11    0.11</time>
   <time name="orth">    0.01    0.01</time>
   <time name="total">    0.19    0.19</time>
   <energy>
    <i name="e_fr_energy">    -76.80027574 </i>
    <i name="e_wo_entrp">    -76.80027574 </i>
    <i name="e_0_energy">    -76.80027574 </i>
   </energy>
  </scstep>
  <scstep>
   <time name="diag">    0.05    0.05</time>
   <time name="diis">    0.08    0.08</time>
   <time name="orth">    0.01    0.01</time>
   <time name="total">    0.16    0.16</time>
   <energy>
    <i name="e_fr_energy">    -76.80029134 </i>
    <i name="e_wo_entrp">    -76.80029134 </i>
    <i name="e_0_energy">    -76.80029134 </i>
   </energy>
  </scstep>
  <scstep>
   <time name="diag">    0.05    0.05</time>
   <time name="diis">    0.08    0.08</time>
   <time name="orth">    0.01    0.01</time>
   <time name="total">    0.16    0.16</time>
   <energy>
    <i name="e_fr_energy">    -76.80030631 </i>
    <i name="e_wo_entrp">    -76.80030631 </i>
    <i name="e_0_energy">    -76.80030631 </i>
   </energy>
  </scstep>
  <scstep>
   <time name="diag">    0.05    0.05</time>
   <time name="diis">    0.05    0.05</time>
   <time name="orth">    0.01    0.01</time>
   <time name="total">    0.11    0.11</time>
   <energy>
    <i name="alphaZ">     68.88434292 </i>
    <i name="ewald">  -2724.42955886 </i>
    <i name="hartreedc">   -661.98425484 </i>
    <i name="XCdc">    185.34706651 </i>
    <i name="pawpsdc">   7376.34098950 </i>
    <i name="pawaedc">  -7426.54478425 </i>
    <i name="eentropy">      0.00000000 </i>
    <i name="bandstr">   -663.50192977 </i>
    <i name="atom">   3769.08782378 </i>
    <i name="e_fr_energy">    -76.80030501 </i>
    <i name="e_wo_entrp">    -76.80030501 </i>
    <i name="e_0_energy">    -76.80030501 </i>
   </energy>
  </scstep>
  <structure>
   <crystal>
    <varray name="basis" >
     <v>       7.27369946       0.00000000       0.00000000 </v>
     <v>       0.00000000       5.68354752       0.00000000 </v>
     <v>       0.00000000       0.00000000       6.92941909 </v>
    </varray>
    <i name="volume">    286.46507138 </i>
    <varray name="rec_basis" >
     <v>       0.13748162       0.00000000       0.00000000 </v>
     <v>       0.00000000       0.17594645       0.00000000 </v>
     <v>       0.00000000       0.00000000       0.14431224 </v>
    </varray>
   </crystal>
   <varray name="positions" >
    <v>       0.00000000       0.75271457       0.27411491 </v>
    <v>       0.50000000       0.24728543       0.77411491 </v>
    <v>       0.22997759       0.54703499       0.24147296 </v>
    <v>       0.27002241       0.45296501       0.74147296 </v>
    <v>       0.72997759       0.45296501       0.74147296 </v>
    <v>       0.77002241       0.54703499       0.24147296 </v>
    <v>       0.00000000       0.94836842       0.02481348 </v>
    <v>       0.50000000       0.05163158       0.52481348 </v>
    <v>       0.00000000       0.93081884       0.52216382 </v>
    <v>       0.50000000       0.06918116       0.02216382 </v>
    <v>       0.00000000       0.37201791       0.98783805 </v>
    <v>       0.50000000       0.62798209       0.48783805 </v>
    <v>       0.28277819       0.77553084       0.95178876 </v>
    <v>       0.21722181       0.22446916       0.45178876 </v>
    <v>       0.78277819       0.22446916       0.45178876 </v>
    <v>       0.71722181       0.77553084       0.95178876 </v>
   </varray>
  </structure>
  <varray name="forces" >
   <v>       0.00000000       0.10307092      -0.09396673 </v>
   <v>       0.00000000      -0.10307092      -0.09396673 </v>
   <v>      -0.05130355      -0.05318228      -0.10524875 </v>
   <v>       0.05130355       0.05318228      -0.10524875 </v>
   <v>      -0.05130355       0.05318228      -0.10524875 </v>
   <v>       0.05130355      -0.05318228      -0.10524875 </v>
   <v>       0.00000000       0.12430682      -0.00069494 </v>
   <v>       0.00000000      -0.12430682      -0.00069494 </v>
   <v>       0.00000000       0.02356068       0.18956982 </v>
   <v>       0.00000000      -0.02356068       0.18956982 </v>
   <v>       0.00000000      -0.05410094       0.03878997 </v>
   <v>       0.00000000       0.05410094       0.03878997 </v>
   <v>       0.00357524       0.03706253       0.03839969 </v>
   <v>      -0.00357524      -0.03706253       0.03839969 </v>
   <v>       0.00357524      -0.03706253       0.03839969 </v>
   <v>      -0.00357524       0.03706253       0.03839969 </v>
  </varray>
  <varray name="stress" >
   <v>      -7.61611982       0.00000000       0.00000000 </v>
   <v>       0.00000000       0.09923764       0.00000000 </v>
   <v>       0.00000000       0.00000000       5.00835290 </v>
  </varray>
  <energy>
   <i name="e_fr_energy">    -76.80030501 </i>
   <i name="e_wo_entrp">    -76.80030501 </i>
   <i name="e_0_energy">      0.00000000 </i>
  </energy>
  <time name="totalsc">    1.94    1.95</time>
 </calculation>
 <calculation>
  <scstep>
   <time name="dav">    0.20    0.20</time>
   <time name="total">    0.22    0.23</time>
   <energy>
    <i name="alphaZ">     68.92739861 </i>
    <i name="ewald">  -2724.31873067 </i>
    <i name="hartreedc">   -662.63467228 </i>
    <i name="XCdc">    185.40283983 </i>
    <i name="pawpsdc">   7376.36470858 </i>
    <i name="pawaedc">  -7426.56923372 </i>
    <i name="eentropy">      0.00000000 </i>
    <i name="bandstr">   -663.06048916 </i>
    <i name="atom">   3769.08782378 </i>
    <i name="e_fr_energy">    -76.80035504 </i>
    <i name="e_wo_entrp">    -76.80035504 </i>
    <i name="e_0_energy">    -76.80035504 </i>
   </energy>
  </scstep>
  <scstep>
   <time name="diag">    0.05    0.05</time>
   <time name="diis">    0.09    0.09</time>
   <time name="orth">    0.01    0.01</time>
   <time name="total">    0.17    0.17</time>
   <energy>
    <i name="e_fr_energy">    -76.80088678 </i>
    <i name="e_wo_entrp">    -76.80088678 </i>
    <i name="e_0_energy">    -76.80088678 </i>
   </energy>
  </scstep>
  <scstep>
   <time name="diag">    0.05    0.05</time>
   <time name="diis">    0.11    0.11</time>
   <time name="orth">    0.01    0.01</time>
   <time name="total">    0.19    0.19</time>
   <energy>
    <i name="e_fr_energy">    -76.80084395 </i>
    <i name="e_wo_entrp">    -76.80084395 </i>
    <i name="e_0_energy">    -76.80084395 </i>
   </energy>
  </scstep>
  <scstep>
   <time name="diag">    0.05    0.05</time>
   <time name="diis">    0.10    0.10</time>
   <time name="orth">    0.01    0.01</time>
   <time name="total">    0.17    0.18</time>
   <energy>
    <i name="e_fr_energy">    -76.80082417 </i>
    <i name="e_wo_entrp">    -76.80082417 </i>
    <i name="e_0_energy">    -76.80082417 </i>
   </energy>
  </scstep>
  <scstep>
   <time name="diag">    0.05    0.05</time>
   <time name="diis">    0.04    0.04</time>
   <time name="orth">    0.01    0.01</time>
   <time name="total">    0.11    0.11</time>
   <energy>
    <i name="alphaZ">     68.92739861 </i>
    <i name="ewald">  -2724.31873067 </i>
    <i name="hartreedc">   -662.39088603 </i>
    <i name="XCdc">    185.38273657 </i>
    <i name="pawpsdc">   7399.81456989 </i>
    <i name="pawaedc">  -7450.03312667 </i>
    <i name="eentropy">      0.00000000 </i>
    <i name="bandstr">   -663.27060365 </i>
    <i name="atom">   3769.08782378 </i>
    <i name="e_fr_energy">    -76.80081817 </i>
    <i name="e_wo_entrp">    -76.80081817 </i>
    <i name="e_0_energy">    -76.80081817 </i>
   </energy>
  </scstep>
  <structure>
   <crystal>
    <varray name="basis" >
     <v>       7.27507553       0.00000000       0.00000000 </v>
     <v>       0.00000000       5.68149557       0.00000000 </v>
     <v>       0.00000000       0.00000000       6.92628136 </v>
    </varray>
    <i name="volume">    286.28613018 </i>
    <varray name="rec_basis" >
     <v>       0.13745562       0.00000000       0.00000000 </v>
     <v>       0.00000000       0.17600999       0.00000000 </v>
     <v>       0.00000000       0.00000000       0.14437762 </v>
    </varray>
   </crystal>
   <varray name="positions" >
    <v>       0.00000000       0.75307162       0.27403529 </v>
    <v>       0.50000000       0.24692838       0.77403529 </v>
    <v>       0.22988099       0.54725329       0.24117178 </v>
    <v>       0.27011901       0.45274671       0.74117178 </v>
    <v>       0.72988099       0.45274671       0.74117178 </v>
    <v>       0.77011901       0.54725329       0.24117178 </v>
    <v>       0.00000000       0.94861664       0.02513814 </v>
    <v>       0.50000000       0.05138336       0.52513814 </v>
    <v>       0.00000000       0.93017602       0.52221282 </v>
    <v>       0.50000000       0.06982398       0.02221282 </v>
    <v>       0.00000000       0.37179845       0.98792363 </v>
    <v>       0.50000000       0.62820155       0.48792363 </v>
    <v>       0.28276158       0.77533235       0.95190012 </v>
    <v>       0.21723842       0.22466765       0.45190012 </v>
    <v>       0.78276158       0.22466765       0.45190012 </v>
    <v>       0.71723842       0.77533235       0.95190012 </v>
   </varray>
  </structure>
  <varray name="forces" >
   <v>       0.00000000       0.05012054      -0.09536042 </v>
   <v>       0.00000000      -0.05012054      -0.09536042 </v>
   <v>      -0.04455096      -0.06546092      -0.09848536 </v>
   <v>       0.04455096       0.06546092      -0.09848536 </v>
   <v>      -0.04455096       0.06546092      -0.09848536 </v>
   <v>       0.04455096      -0.06546092      -0.09848536 </v>
   <v>       0.00000000       0.15173357      -0.04382884 </v>
   <v>       0.00000000      -0.15173357      -0.04382884 </v>
   <v>       0.00000000       0.06362965       0.23196855 </v>
   <v>       0.00000000      -0.06362965       0.23196855 </v>
   <v>       0.00000000      -0.04591314       0.03665659 </v>
   <v>       0.00000000       0.04591314       0.03665659 </v>
   <v>       0.00615825       0.04308420       0.03376742 </v>
   <v>      -0.00615825      -0.04308420       0.03376742 </v>
   <v>       0.00615825      -0.04308420       0.03376742 </v>
   <v>      -0.00615825       0.04308420       0.03376742 </v>
  </varray>
  <varray name="stress" >
   <v>      -7.67288171       0.00000000       0.00000000 </v>
   <v>       0.00000000       1.11645400       0.00000000 </v>
   <v>       0.00000000       0.00000000       6.94106896 </v>
  </varray>
  <energy>
   <i name="e_fr_energy">    -76.80081817 </i>
   <i name="e_wo_entrp">    -76.80081817 </i>
   <i name="e_0_energy">      0.00000000 </i>
  </energy>
  <time name="totalsc">    1.04    1.05</time>
 </calculation>
 <calculation>
  <scstep>
   <time name="dav">    0.17    0.17</time>
   <time name="total">    0.19    0.19</time>
   <energy>
    <i name="alphaZ">     69.02871068 </i>
    <i name="ewald">  -2726.87655065 </i>
    <i name="hartreedc">   -661.86357273 </i>
    <i name="XCdc">    185.45397643 </i>
    <i name="pawpsdc">   7400.30903353 </i>
    <i name="pawaedc">  -7450.52915378 </i>
    <i name="eentropy">      0.00000000 </i>
    <i name="bandstr">   -661.42371392 </i>
    <i name="atom">   3769.08782378 </i>
    <i name="e_fr_energy">    -76.81344667 </i>
    <i name="e_wo_entrp">    -76.81344667 </i>
    <i name="e_0_energy">    -76.81344667 </i>
   </energy>
  </scstep>
  <scstep>
   <time name="diag">    0.05    0.05</time>
   <time name="diis">    0.09    0.09</time>
   <time name="orth">    0.01    0.01</time>
   <time name="total">    0.17    0.17</time>
   <energy>
    <i name="e_fr_energy">    -76.81968017 </i>
    <i name="e_wo_entrp">    -76.81968017 </i>
    <i name="e_0_energy">    -76.81968017 </i>
   </energy>
  </scstep>
  <scstep>
   <time name="diag">    0.05    0.05</time>
   <time name="diis">    0.11    0.11</time>
   <time name="orth">    0.01    0.01</time>
   <time name="total">    0.19    0.19</time>
   <energy>
    <i name="e_fr_energy">    -76.81713581 </i>
    <i name="e_wo_entrp">    -76.81713581 </i>
    <i name="e_0_energy">    -76.81713581 </i>
   </energy>
  </scstep>
  <scstep>
   <time name="diag">    0.05    0.05</time>
   <time name="diis">    0.09    0.09</time>
   <time name="orth">    0.01    0.01</time>
   <time name="total">    0.17    0.17</time>
   <energy>
    <i name="e_fr_energy">    -76.81635801 </i>
    <i name="e_wo_entrp">    -76.81635801 </i>
    <i name="e_0_energy">    -76.81635801 </i>
   </energy>
  </scstep>
  <scstep>
   <time name="diag">    0.05    0.05</time>
   <time name="diis">    0.11    0.11</time>
   <time name="orth">    0.01    0.01</time>
   <time name="total">    0.19    0.19</time>
   <energy>
    <i name="e_fr_energy">    -76.81637407 </i>
    <i name="e_wo_entrp">    -76.81637407 </i>
    <i name="e_0_energy">    -76.81637407 </i>
   </energy>
  </scstep>
  <scstep>
   <time name="diag">    0.05    0.05</time>
   <time name="diis">    0.09    0.09</time>
   <time name="orth">    0.01    0.01</time>
   <time name="total">    0.17    0.17</time>
   <energy>
    <i name="e_fr_energy">    -76.81638506 </i>
    <i name="e_wo_entrp">    -76.81638506 </i>
    <i name="e_0_energy">    -76.81638506 </i>
   </energy>
  </scstep>
  <scstep>
   <time name="diag">    0.05    0.05</time>
   <time name="diis">    0.07    0.07</time>
   <time name="orth">    0.01    0.01</time>
   <time name="total">    0.13    0.13</time>
   <energy>
    <i name="alphaZ">     69.02871068 </i>
    <i name="ewald">  -2726.87655065 </i>
    <i name="hartreedc">   -660.91636324 </i>
    <i name="XCdc">    185.38714965 </i>
    <i name="pawpsdc">   7392.99841226 </i>
    <i name="pawaedc">  -7443.20272624 </i>
    <i name="eentropy">      0.00000000 </i>
    <i name="bandstr">   -662.32283116 </i>
    <i name="atom">   3769.08782378 </i>
    <i name="e_fr_energy">    -76.81637492 </i>
    <i name="e_wo_entrp">    -76.81637492 </i>
    <i name="e_0_energy">    -76.81637492 </i>
   </energy>
  </scstep>
  <structure>
   <crystal>
    <varray name="basis" >
     <v>       7.24970391       0.00000000       0.00000000 </v>
     <v>       0.00000000       5.67933658       0.00000000 </v>
     <v>       0.00000000       0.00000000       6.94295831 </v>
    </varray>
    <i name="volume">    285.86595371 </i>
    <varray name="rec_basis" >
     <v>       0.13793667       0.00000000       0.00000000 </v>
     <v>       0.00000000       0.17607690       0.00000000 </v>
     <v>       0.00000000       0.00000000       0.14403082 </v>
    </varray>
   </crystal>
   <varray name="positions" >
    <v>       0.00000000       0.75443607       0.27318110 </v>
    <v>       0.50000000       0.24556393       0.77318110 </v>
    <v>       0.22933786       0.54729924       0.23970495 </v>
    <v>       0.27066214       0.45270076       0.73970495 </v>
    <v>       0.72933786       0.45270076       0.73970495 </v>
    <v>       0.77066214       0.54729924       0.23970495 </v>
    <v>       0.00000000       0.95052392       0.02571020 </v>
    <v>       0.50000000       0.04947608       0.52571020 </v>
    <v>       0.00000000       0.92898155       0.52390436 </v>
    <v>       0.50000000       0.07101845       0.02390436 </v>
    <v>       0.00000000       0.37083588       0.98839877 </v>
    <v>       0.50000000       0.62916412       0.48839877 </v>
    <v>       0.28275670       0.77515575       0.95242469 </v>
    <v>       0.21724330       0.22484425       0.45242469 </v>
    <v>       0.78275670       0.22484425       0.45242469 </v>
    <v>       0.71724330       0.77515575       0.95242469 </v>
   </varray>
  </structure>
  <varray name="forces" >
   <v>       0.00000000       0.07563675       0.11088581 </v>
   <v>       0.00000000      -0.07563675       0.11088581 </v>
   <v>       0.03837606      -0.09098721      -0.06765983 </v>
   <v>      -0.03837606       0.09098721      -0.06765983 </v>
   <v>       0.03837606       0.09098721      -0.06765983 </v>
   <v>      -0.03837606      -0.09098721      -0.06765983 </v>
   <v>       0.00000000       0.17415216      -0.05434634 </v>
   <v>       0.00000000      -0.17415216      -0.05434634 </v>
   <v>       0.00000000       0.00213690       0.02295651 </v>
   <v>       0.00000000      -0.00213690       0.02295651 </v>
   <v>       0.00000000      -0.01578138       0.02301804 </v>
   <v>       0.00000000       0.01578138       0.02301804 </v>
   <v>       0.02295743       0.03714782       0.01640282 </v>
   <v>      -0.02295743      -0.03714782       0.01640282 </v>
   <v>       0.02295743      -0.03714782       0.01640282 </v>
   <v>      -0.02295743       0.03714782       0.01640282 </v>
  </varray>
  <varray name="stress" >
   <v>      -3.29941809       0.00000000       0.00000000 </v>
   <v>       0.00000000       1.52748820       0.00000000 </v>
   <v>       0.00000000       0.00000000       1.95006075 </v>
  </varray>
  <energy>
   <i name="e_fr_energy">    -76.81637492 </i>
   <i name="e_wo_entrp">    -76.81637492 </i>
   <i name="e_0_energy">      0.00000000 </i>
  </energy>
  <time name="totalsc">    1.39    1.40</time>
 </calculation>
 <calculation>
  <scstep>
   <time name="dav">    0.18    0.18</time>
   <time name="total">    0.20    0.20</time>
   <energy>
    <i name="alphaZ">     69.11922346 </i>
    <i name="ewald">  -2729.11255489 </i>
    <i name="hartreedc">   -660.48998672 </i>
    <i name="XCdc">    185.45129532 </i>
    <i name="pawpsdc">   7392.84109521 </i>
    <i name="pawaedc">  -7443.04719729 </i>
    <i name="eentropy">      0.00000000 </i>
    <i name="bandstr">   -660.66535751 </i>
    <i name="atom">   3769.08782378 </i>
    <i name="e_fr_energy">    -76.81565864 </i>
    <i name="e_wo_entrp">    -76.81565864 </i>
    <i name="e_0_energy">    -76.81565864 </i>
   </energy>
  </scstep>
  <scstep>
   <time name="diag">    0.05    0.05</time>
   <time name="diis">    0.09    0.09</time>
   <time name="orth">    0.01    0.01</time>
   <time name="total">    0.17    0.17</time>
   <energy>
    <i name="e_fr_energy">    -76.82054887 </i>
    <i name="e_wo_entrp">    -76.82054887 </i>
    <i name="e_0_energy">    -76.82054887 </i>
   </energy>
  </scstep>
  <scstep>
   <time name="diag">    0.05    0.05</time>
   <time name="diis">    0.11    0.11</time>
   <time name="orth">    0.01    0.01</time>
   <time name="total">    0.19    0.19</time>
   <energy>
    <i name="e_fr_energy">    -76.81862124 </i>
    <i name="e_wo_entrp">    -76.81862124 </i>
    <i name="e_0_energy">    -76.81862124 </i>
   </energy>
  </scstep>
  <scstep>
   <time name="diag">    0.05    0.05</time>
   <time name="diis">    0.09    0.09</time>
   <time name="orth">    0.01    0.01</time>
   <time name="total">    0.17    0.17</time>
   <energy>
    <i name="e_fr_energy">    -76.81803016 </i>
    <i name="e_wo_entrp">    -76.81803016 </i>
    <i name="e_0_energy">    -76.81803016 </i>
   </energy>
  </scstep>
  <scstep>
   <time name="diag">    0.05    0.05</time>
   <time name="diis">    0.11    0.11</time>
   <time name="orth">    0.01    0.01</time>
   <time name="total">    0.19    0.19</time>
   <energy>
    <i name="e_fr_energy">    -76.81804868 </i>
    <i name="e_wo_entrp">    -76.81804868 </i>
    <i name="e_0_energy">    -76.81804868 </i>
   </energy>
  </scstep>
  <scstep>
   <time name="diag">    0.05    0.05</time>
   <time name="diis">    0.09    0.09</time>
   <time name="orth">    0.01    0.01</time>
   <time name="total">    0.17    0.17</time>
   <energy>
    <i name="e_fr_energy">    -76.81806147 </i>
    <i name="e_wo_entrp">    -76.81806147 </i>
    <i name="e_0_energy">    -76.81806147 </i>
   </energy>
  </scstep>
  <scstep>
   <time name="diag">    0.05    0.05</time>
   <time name="diis">    0.07    0.07</time>
   <time name="orth">    0.01    0.01</time>
   <time name="total">    0.13    0.13</time>
   <energy>
    <i name="alphaZ">     69.11922346 </i>
    <i name="ewald">  -2729.11255489 </i>
    <i name="hartreedc">   -659.64588552 </i>
    <i name="XCdc">    185.39154436 </i>
    <i name="pawpsdc">   7387.35885589 </i>
    <i name="pawaedc">  -7437.55264054 </i>
    <i name="eentropy">      0.00000000 </i>
    <i name="bandstr">   -661.46441836 </i>
    <i name="atom">   3769.08782378 </i>
    <i name="e_fr_energy">    -76.81805182 </i>
    <i name="e_wo_entrp">    -76.81805182 </i>
    <i name="e_0_energy">    -76.81805182 </i>
   </energy>
  </scstep>
  <structure>
   <crystal>
    <varray name="basis" >
     <v>       7.22732855       0.00000000       0.00000000 </v>
     <v>       0.00000000       5.67743256       0.00000000 </v>
     <v>       0.00000000       0.00000000       6.95766580 </v>
    </varray>
    <i name="volume">    285.49160747 </i>
    <varray name="rec_basis" >
     <v>       0.13836371       0.00000000       0.00000000 </v>
     <v>       0.00000000       0.17613595       0.00000000 </v>
     <v>       0.00000000       0.00000000       0.14372636 </v>
    </varray>
   </crystal>
   <varray name="positions" >
    <v>       0.00000000       0.75563984       0.27242959 </v>
    <v>       0.50000000       0.24436016       0.77242959 </v>
    <v>       0.22885720       0.54733979       0.23841445 </v>
    <v>       0.27114280       0.45266021       0.73841445 </v>
    <v>       0.72885720       0.45266021       0.73841445 </v>
    <v>       0.77114280       0.54733979       0.23841445 </v>
    <v>       0.00000000       0.95220660       0.02621350 </v>
    <v>       0.50000000       0.04779340       0.52621350 </v>
    <v>       0.00000000       0.92792774       0.52539255 </v>
    <v>       0.50000000       0.07207226       0.02539255 </v>
    <v>       0.00000000       0.36998666       0.98881679 </v>
    <v>       0.50000000       0.63001334       0.48881679 </v>
    <v>       0.28275238       0.77499995       0.95288619 </v>
    <v>       0.21724762       0.22500005       0.45288619 </v>
    <v>       0.78275238       0.22500005       0.45288619 </v>
    <v>       0.71724762       0.77499995       0.95288619 </v>
   </varray>
  </structure>
  <varray name="forces" >
   <v>       0.00000000       0.09622994       0.29282075 </v>
   <v>       0.00000000      -0.09622994       0.29282075 </v>
   <v>       0.11399854      -0.11656141      -0.03676634 </v>
   <v>      -0.11399854       0.11656141      -0.03676634 </v>
   <v>       0.11399854       0.11656141      -0.03676634 </v>
   <v>      -0.11399854      -0.11656141      -0.03676634 </v>
   <v>       0.00000000       0.18857986      -0.06595068 </v>
   <v>       0.00000000      -0.18857986      -0.06595068 </v>
   <v>       0.00000000      -0.04967698      -0.16301109 </v>
   <v>       0.00000000       0.04967698      -0.16301109 </v>
   <v>       0.00000000       0.01364211       0.01069100 </v>
   <v>       0.00000000      -0.01364211       0.01069100 </v>
   <v>       0.03762631       0.03131553      -0.00050865 </v>
   <v>      -0.03762631      -0.03131553      -0.00050865 </v>
   <v>       0.03762631      -0.03131553      -0.00050865 </v>
[...]
       <r>   -9.0677    1.0000 </r>
       <r>   -4.8711    1.0000 </r>
       <r>   -4.7624    1.0000 </r>
       <r>   -2.3864    1.0000 </r>
       <r>   -2.2534    1.0000 </r>
       <r>   -2.0647    1.0000 </r>
       <r>   -1.9975    1.0000 </r>
       <r>   -1.7529    1.0000 </r>
       <r>   -1.5650    1.0000 </r>
       <r>   -0.1047    1.0000 </r>
       <r>    0.1126    1.0000 </r>
       <r>    0.2922    1.0000 </r>
       <r>    0.5135    1.0000 </r>
       <r>    0.6786    1.0000 </r>
       <r>    0.8174    1.0000 </r>
       <r>    0.8592    1.0000 </r>
       <r>    1.1939    1.0000 </r>
       <r>    1.3534    1.0000 </r>
       <r>    1.4585    1.0000 </r>
       <r>    1.8251    1.0000 </r>
       <r>    1.9120    1.0000 </r>
       <r>    2.1249    1.0000 </r>
       <r>    2.1416    1.0000 </r>
       <r>    2.3647    1.0000 </r>
       <r>    2.4592    1.0000 </r>
       <r>    5.7250    0.0000 </r>
       <r>    5.9266    0.0000 </r>
       <r>    6.5538    0.0000 </r>
       <r>    6.7416    0.0000 </r>
       <r>    7.1435    0.0000 </r>
       <r>    7.2288    0.0000 </r>
       <r>    7.4508    0.0000 </r>
       <r>    7.4888    0.0000 </r>
       <r>    8.5832    0.0000 </r>
       <r>    8.9495    0.0000 </r>
      </set>
      <set comment="kpoint 8">
       <r>  -41.1788    1.0000 </r>
       <r>  -41.1788    1.0000 </r>
       <r>  -40.7018    1.0000 </r>
       <r>  -40.7017    1.0000 </r>
       <r>  -40.6987    1.0000 </r>
       <r>  -40.6987    1.0000 </r>
       <r>  -12.2917    1.0000 </r>
       <r>  -12.2785    1.0000 </r>
       <r>   -9.4268    1.0000 </r>
       <r>   -9.4101    1.0000 </r>
       <r>   -9.2698    1.0000 </r>
       <r>   -9.2306    1.0000 </r>
       <r>   -9.1092    1.0000 </r>
       <r>   -9.0882    1.0000 </r>
       <r>   -4.7388    1.0000 </r>
       <r>   -4.6921    1.0000 </r>
       <r>   -2.2920    1.0000 </r>
       <r>   -2.2475    1.0000 </r>
       <r>   -2.1368    1.0000 </r>
       <r>   -2.0726    1.0000 </r>
       <r>   -1.6121    1.0000 </r>
       <r>   -1.5865    1.0000 </r>
       <r>   -0.1478    1.0000 </r>
       <r>   -0.0678    1.0000 </r>
       <r>    0.4138    1.0000 </r>
       <r>    0.6273    1.0000 </r>
       <r>    0.6671    1.0000 </r>
       <r>    0.8259    1.0000 </r>
       <r>    0.9025    1.0000 </r>
       <r>    1.0281    1.0000 </r>
       <r>    1.3877    1.0000 </r>
       <r>    1.4692    1.0000 </r>
       <r>    1.7504    1.0000 </r>
       <r>    1.8426    1.0000 </r>
       <r>    1.9441    1.0000 </r>
       <r>    2.0270    1.0000 </r>
       <r>    2.1296    1.0000 </r>
       <r>    2.1847    1.0000 </r>
       <r>    6.1337    0.0000 </r>
       <r>    6.2985    0.0000 </r>
       <r>    6.8150    0.0000 </r>
       <r>    6.9716    0.0000 </r>
       <r>    7.1114    0.0000 </r>
       <r>    7.2489    0.0000 </r>
       <r>    7.4067    0.0000 </r>
       <r>    7.4782    0.0000 </r>
       <r>    8.7493    0.0000 </r>
       <r>    8.8435    0.0000 </r>
      </set>
     </set>
    </set>
   </array>
  </eigenvalues>
  <separator name="orbital magnetization" >
   <v name="MAGDIPOLOUT">      0.00000000      0.00000000      0.00000000</v>
  </separator>
  <dos>
   <i name="efermi">      2.90901754 </i>
   <total>
    <array>
     <dimension dim="1">gridpoints</dimension>
     <dimension dim="2">spin</dimension>
     <field>energy</field>
     <field>total</field>
     <field>integrated</field>
     <set>
      <set comment="spin 1">
       <r>   -43.6853     0.0000     0.0000 </r>
       <r>   -43.5015     0.0000     0.0000 </r>
       <r>   -43.3177     0.0000     0.0000 </r>
       <r>   -43.1339     0.0000     0.0000 </r>
       <r>   -42.9500     0.0000     0.0000 </r>
       <r>   -42.7662     0.0000     0.0000 </r>
       <r>   -42.5824     0.0000     0.0000 </r>
       <r>   -42.3986     0.0000     0.0000 </r>
       <r>   -42.2148     0.0000     0.0000 </r>
       <r>   -42.0310     0.0000     0.0000 </r>
       <r>   -41.8472     0.0000     0.0000 </r>
       <r>   -41.6634     0.0000     0.0000 </r>
       <r>   -41.4796     0.0000     0.0000 </r>
       <r>   -41.2958     0.0000     0.0000 </r>
       <r>   -41.1120     0.0000     4.0000 </r>
       <r>   -40.9282     0.0000     4.0000 </r>
       <r>   -40.7444     0.0000     4.0000 </r>
       <r>   -40.5606     0.0000    12.0000 </r>
       <r>   -40.3768     0.0000    12.0000 </r>
       <r>   -40.1930     0.0000    12.0000 </r>
       <r>   -40.0092     0.0000    12.0000 </r>
       <r>   -39.8254     0.0000    12.0000 </r>
       <r>   -39.6416     0.0000    12.0000 </r>
       <r>   -39.4578     0.0000    12.0000 </r>
       <r>   -39.2740     0.0000    12.0000 </r>
       <r>   -39.0902     0.0000    12.0000 </r>
       <r>   -38.9064     0.0000    12.0000 </r>
       <r>   -38.7226     0.0000    12.0000 </r>
       <r>   -38.5388     0.0000    12.0000 </r>
       <r>   -38.3550     0.0000    12.0000 </r>
       <r>   -38.1711     0.0000    12.0000 </r>
       <r>   -37.9873     0.0000    12.0000 </r>
       <r>   -37.8035     0.0000    12.0000 </r>
       <r>   -37.6197     0.0000    12.0000 </r>
       <r>   -37.4359     0.0000    12.0000 </r>
       <r>   -37.2521     0.0000    12.0000 </r>
       <r>   -37.0683     0.0000    12.0000 </r>
       <r>   -36.8845     0.0000    12.0000 </r>
       <r>   -36.7007     0.0000    12.0000 </r>
       <r>   -36.5169     0.0000    12.0000 </r>
       <r>   -36.3331     0.0000    12.0000 </r>
       <r>   -36.1493     0.0000    12.0000 </r>
       <r>   -35.9655     0.0000    12.0000 </r>
       <r>   -35.7817     0.0000    12.0000 </r>
       <r>   -35.5979     0.0000    12.0000 </r>
       <r>   -35.4141     0.0000    12.0000 </r>
       <r>   -35.2303     0.0000    12.0000 </r>
       <r>   -35.0465     0.0000    12.0000 </r>
       <r>   -34.8627     0.0000    12.0000 </r>
       <r>   -34.6789     0.0000    12.0000 </r>
       <r>   -34.4951     0.0000    12.0000 </r>
       <r>   -34.3113     0.0000    12.0000 </r>
       <r>   -34.1275     0.0000    12.0000 </r>
       <r>   -33.9437     0.0000    12.0000 </r>
       <r>   -33.7599     0.0000    12.0000 </r>
       <r>   -33.5760     0.0000    12.0000 </r>
       <r>   -33.3922     0.0000    12.0000 </r>
       <r>   -33.2084     0.0000    12.0000 </r>
       <r>   -33.0246     0.0000    12.0000 </r>
       <r>   -32.8408     0.0000    12.0000 </r>
       <r>   -32.6570     0.0000    12.0000 </r>
       <r>   -32.4732     0.0000    12.0000 </r>
       <r>   -32.2894     0.0000    12.0000 </r>
       <r>   -32.1056     0.0000    12.0000 </r>
       <r>   -31.9218     0.0000    12.0000 </r>
       <r>   -31.7380     0.0000    12.0000 </r>
       <r>   -31.5542     0.0000    12.0000 </r>
       <r>   -31.3704     0.0000    12.0000 </r>
       <r>   -31.1866     0.0000    12.0000 </r>
       <r>   -31.0028     0.0000    12.0000 </r>
       <r>   -30.8190     0.0000    12.0000 </r>
       <r>   -30.6352     0.0000    12.0000 </r>
       <r>   -30.4514     0.0000    12.0000 </r>
       <r>   -30.2676     0.0000    12.0000 </r>
       <r>   -30.0838     0.0000    12.0000 </r>
       <r>   -29.9000     0.0000    12.0000 </r>
       <r>   -29.7162     0.0000    12.0000 </r>
       <r>   -29.5324     0.0000    12.0000 </r>
       <r>   -29.3486     0.0000    12.0000 </r>
       <r>   -29.1648     0.0000    12.0000 </r>
       <r>   -28.9810     0.0000    12.0000 </r>
       <r>   -28.7971     0.0000    12.0000 </r>
       <r>   -28.6133     0.0000    12.0000 </r>
       <r>   -28.4295     0.0000    12.0000 </r>
       <r>   -28.2457     0.0000    12.0000 </r>
       <r>   -28.0619     0.0000    12.0000 </r>
       <r>   -27.8781     0.0000    12.0000 </r>
       <r>   -27.6943     0.0000    12.0000 </r>
       <r>   -27.5105     0.0000    12.0000 </r>
       <r>   -27.3267     0.0000    12.0000 </r>
       <r>   -27.1429     0.0000    12.0000 </r>
       <r>   -26.9591     0.0000    12.0000 </r>
       <r>   -26.7753     0.0000    12.0000 </r>
       <r>   -26.5915     0.0000    12.0000 </r>
       <r>   -26.4077     0.0000    12.0000 </r>
       <r>   -26.2239     0.0000    12.0000 </r>
       <r>   -26.0401     0.0000    12.0000 </r>
       <r>   -25.8563     0.0000    12.0000 </r>
       <r>   -25.6725     0.0000    12.0000 </r>
       <r>   -25.4887     0.0000    12.0000 </r>
       <r>   -25.3049     0.0000    12.0000 </r>
       <r>   -25.1211     0.0000    12.0000 </r>
       <r>   -24.9373     0.0000    12.0000 </r>
       <r>   -24.7535     0.0000    12.0000 </r>
       <r>   -24.5697     0.0000    12.0000 </r>
       <r>   -24.3859     0.0000    12.0000 </r>
       <r>   -24.2021     0.0000    12.0000 </r>
       <r>   -24.0182     0.0000    12.0000 </r>
       <r>   -23.8344     0.0000    12.0000 </r>
       <r>   -23.6506     0.0000    12.0000 </r>
       <r>   -23.4668     0.0000    12.0000 </r>
       <r>   -23.2830     0.0000    12.0000 </r>
       <r>   -23.0992     0.0000    12.0000 </r>
       <r>   -22.9154     0.0000    12.0000 </r>
       <r>   -22.7316     0.0000    12.0000 </r>
       <r>   -22.5478     0.0000    12.0000 </r>
       <r>   -22.3640     0.0000    12.0000 </r>
       <r>   -22.1802     0.0000    12.0000 </r>
       <r>   -21.9964     0.0000    12.0000 </r>
       <r>   -21.8126     0.0000    12.0000 </r>
       <r>   -21.6288     0.0000    12.0000 </r>
       <r>   -21.4450     0.0000    12.0000 </r>
       <r>   -21.2612     0.0000    12.0000 </r>
       <r>   -21.0774     0.0000    12.0000 </r>
       <r>   -20.8936     0.0000    12.0000 </r>
       <r>   -20.7098     0.0000    12.0000 </r>
       <r>   -20.5260     0.0000    12.0000 </r>
       <r>   -20.3422     0.0000    12.0000 </r>
       <r>   -20.1584     0.0000    12.0000 </r>
       <r>   -19.9746     0.0000    12.0000 </r>
       <r>   -19.7908     0.0000    12.0000 </r>
       <r>   -19.6070     0.0000    12.0000 </r>
       <r>   -19.4232     0.0000    12.0000 </r>
       <r>   -19.2393     0.0000    12.0000 </r>
       <r>   -19.0555     0.0000    12.0000 </r>
       <r>   -18.8717     0.0000    12.0000 </r>
       <r>   -18.6879     0.0000    12.0000 </r>
       <r>   -18.5041     0.0000    12.0000 </r>
       <r>   -18.3203     0.0000    12.0000 </r>
       <r>   -18.1365     0.0000    12.0000 </r>
       <r>   -17.9527     0.0000    12.0000 </r>
       <r>   -17.7689     0.0000    12.0000 </r>
       <r>   -17.5851     0.0000    12.0000 </r>
       <r>   -17.4013     0.0000    12.0000 </r>
       <r>   -17.2175     0.0000    12.0000 </r>
       <r>   -17.0337     0.0000    12.0000 </r>
       <r>   -16.8499     0.0000    12.0000 </r>
       <r>   -16.6661     0.0000    12.0000 </r>
       <r>   -16.4823     0.0000    12.0000 </r>
       <r>   -16.2985     0.0000    12.0000 </r>
       <r>   -16.1147     0.0000    12.0000 </r>
       <r>   -15.9309     0.0000    12.0000 </r>
       <r>   -15.7471     0.0000    12.0000 </r>
       <r>   -15.5633     0.0000    12.0000 </r>
       <r>   -15.3795     0.0000    12.0000 </r>
       <r>   -15.1957     0.0000    12.0000 </r>
       <r>   -15.0119     0.0000    12.0000 </r>
       <r>   -14.8281     0.0000    12.0000 </r>
       <r>   -14.6443     0.0000    12.0000 </r>
       <r>   -14.4604     0.0000    12.0000 </r>
       <r>   -14.2766     0.0000    12.0000 </r>
       <r>   -14.0928     0.0000    12.0000 </r>
       <r>   -13.9090     0.0000    12.0000 </r>
       <r>   -13.7252     0.0000    12.0000 </r>
       <r>   -13.5414     0.0000    12.0000 </r>
       <r>   -13.3576     0.0000    12.0000 </r>
       <r>   -13.1738     0.0000    12.0000 </r>
       <r>   -12.9900     0.0000    12.0000 </r>
       <r>   -12.8062     0.0000    12.0000 </r>
       <r>   -12.6224     0.0000    12.0000 </r>
       <r>   -12.4386     0.0000    12.0000 </r>
       <r>   -12.2548    13.5927    15.8205 </r>
       <r>   -12.0710     0.0000    16.0000 </r>
       <r>   -11.8872     0.0000    16.0000 </r>
       <r>   -11.7034     0.0000    16.0000 </r>
       <r>   -11.5196     0.0000    16.0000 </r>
       <r>   -11.3358     0.0000    16.0000 </r>
       <r>   -11.1520     0.0000    16.0000 </r>
       <r>   -10.9682     0.0000    16.0000 </r>
       <r>   -10.7844     0.0000    16.0000 </r>
       <r>   -10.6006     0.0000    16.0000 </r>
       <r>   -10.4168     0.0000    16.0000 </r>
       <r>   -10.2330     0.0000    16.0000 </r>
       <r>   -10.0492     0.0000    16.0000 </r>
       <r>    -9.8654     0.0000    16.0000 </r>
       <r>    -9.6815     0.0000    16.0000 </r>
       <r>    -9.4977     4.0103    16.0651 </r>
       <r>    -9.3139     0.0000    20.0000 </r>
       <r>    -9.1301     7.5006    23.9264 </r>
       <r>    -8.9463     0.0000    28.0000 </r>
       <r>    -8.7625     0.0000    28.0000 </r>
       <r>    -8.5787     0.0000    28.0000 </r>
       <r>    -8.3949     0.0000    28.0000 </r>
       <r>    -8.2111     0.0000    28.0000 </r>
       <r>    -8.0273     0.0000    28.0000 </r>
       <r>    -7.8435     0.0000    28.0000 </r>
       <r>    -7.6597     0.0000    28.0000 </r>
       <r>    -7.4759     0.0000    28.0000 </r>
       <r>    -7.2921     0.0000    28.0000 </r>
       <r>    -7.1083     0.0000    28.0000 </r>
       <r>    -6.9245     0.0000    28.0000 </r>
       <r>    -6.7407     0.0000    28.0000 </r>
       <r>    -6.5569     0.0000    28.0000 </r>
       <r>    -6.3731     0.0000    28.0000 </r>
       <r>    -6.1893     0.0000    28.0000 </r>
       <r>    -6.0055     0.0000    28.0000 </r>
       <r>    -5.8217     0.0000    28.0000 </r>
       <r>    -5.6379     0.0000    28.0000 </r>
       <r>    -5.4541     0.0000    28.0000 </r>
       <r>    -5.2703     0.9720    28.0480 </r>
       <r>    -5.0865     3.1500    28.4308 </r>
       <r>    -4.9026     4.9001    29.3677 </r>
       <r>    -4.7188    13.5097    31.7364 </r>
       <r>    -4.5350     0.0000    32.0000 </r>
       <r>    -4.3512     0.0000    32.0000 </r>
       <r>    -4.1674     0.0000    32.0000 </r>
       <r>    -3.9836     0.0000    32.0000 </r>
       <r>    -3.7998     0.0000    32.0000 </r>
       <r>    -3.6160     0.0000    32.0000 </r>
       <r>    -3.4322     0.0000    32.0000 </r>
       <r>    -3.2484     0.0000    32.0000 </r>
       <r>    -3.0646     0.0000    32.0000 </r>
       <r>    -2.8808     0.0000    32.0000 </r>
       <r>    -2.6970     0.0000    32.0000 </r>
       <r>    -2.5132     1.4208    32.0530 </r>
       <r>    -2.3294    10.4735    33.2140 </r>
       <r>    -2.1456     5.7106    35.4702 </r>
       <r>    -1.9618    11.5163    38.8301 </r>
       <r>    -1.7780     0.0000    40.0000 </r>
       <r>    -1.5942    37.8013    42.7111 </r>
       <r>    -1.4104     0.0000    44.0000 </r>
       <r>    -1.2266     0.0000    44.0000 </r>
       <r>    -1.0428     0.0000    44.0000 </r>
       <r>    -0.8590     0.0000    44.0000 </r>
       <r>    -0.6752     0.0000    44.0000 </r>
       <r>    -0.4914     0.0000    44.0000 </r>
       <r>    -0.3076     2.8860    44.3652 </r>
       <r>    -0.1237    11.3374    45.8496 </r>
       <r>     0.0601     7.0918    47.9017 </r>
       <r>     0.2439    10.1633    49.3801 </r>
       <r>     0.4277     7.9482    51.6118 </r>
       <r>     0.6115     5.5323    53.1708 </r>
       <r>     0.7953    18.2795    54.4357 </r>
       <r>     0.9791     4.8230    56.8346 </r>
       <r>     1.1629    11.1242    58.2094 </r>
       <r>     1.3467     2.2279    59.6651 </r>
       <r>     1.5305     9.3894    62.1168 </r>
       <r>     1.7143    10.6194    63.9182 </r>
       <r>     1.8981    16.5930    66.4731 </r>
       <r>     2.0819    15.9512    69.2422 </r>
       <r>     2.2657    10.1950    72.6443 </r>
       <r>     2.4495     2.8341    74.7454 </r>
       <r>     2.6333     2.7747    75.5478 </r>
       <r>     2.8171     1.0800    75.9373 </r>
       <r>     3.0009     0.0000    76.0000 </r>
       <r>     3.1847     0.0000    76.0000 </r>
       <r>     3.3685     0.0000    76.0000 </r>
       <r>     3.5523     0.0000    76.0000 </r>
       <r>     3.7361     0.0000    76.0000 </r>
       <r>     3.9199     0.0000    76.0000 </r>
       <r>     4.1037     0.0000    76.0000 </r>
       <r>     4.2875     0.0000    76.0000 </r>
       <r>     4.4714     0.0000    76.0000 </r>
       <r>     4.6552     0.0000    76.0000 </r>
       <r>     4.8390     0.0000    76.0000 </r>
       <r>     5.0228     0.4580    76.0415 </r>
       <r>     5.2066     0.8960    76.1642 </r>
       <r>     5.3904     1.4467    76.3778 </r>
       <r>     5.5742     3.1007    76.9231 </r>
       <r>     5.7580     4.3966    77.5394 </r>
       <r>     5.9418     5.4615    78.7574 </r>
       <r>     6.1256     3.6466    79.6346 </r>
       <r>     6.3094     2.8579    80.4930 </r>
       <r>     6.4932     5.3104    81.2271 </r>
       <r>     6.6770     7.6993    82.6682 </r>
       <r>     6.8608     6.7180    84.5024 </r>
       <r>     7.0446     6.2851    85.9417 </r>
       <r>     7.2284     5.5312    86.9205 </r>
       <r>     7.4122    24.6384    88.1600 </r>
       <r>     7.5960     6.6510    91.2589 </r>
       <r>     7.7798     1.0570    91.8885 </r>
       <r>     7.9636     0.0000    92.0000 </r>
       <r>     8.1474     0.0000    92.0000 </r>
       <r>     8.3312     5.9607    92.6113 </r>
       <r>     8.5150     5.9237    93.7687 </r>
       <r>     8.6988     3.6202    95.4235 </r>
       <r>     8.8826     1.4089    95.8934 </r>
       <r>     9.0664     0.0000    96.0000 </r>
       <r>     9.2503     0.0000    96.0000 </r>
       <r>     9.4341     0.0000    96.0000 </r>
       <r>     9.6179     0.0000    96.0000 </r>
       <r>     9.8017     0.0000    96.0000 </r>
       <r>     9.9855     0.0000    96.0000 </r>
       <r>    10.1693     0.0000    96.0000 </r>
       <r>    10.3531     0.0000    96.0000 </r>
       <r>    10.5369     0.0000    96.0000 </r>
       <r>    10.7207     0.0000    96.0000 </r>
       <r>    10.9045     0.0000    96.0000 </r>
       <r>    11.0883     0.0000    96.0000 </r>
       <r>    11.2721     0.0000    96.0000 </r>
       <r>    11.4559     0.0000    96.0000 </r>
      </set>
     </set>
    </array>
   </total>
  </dos>
 </calculation>
 <structure name="finalpos" >
  <crystal>
   <varray name="basis" >
    <v>       7.17533333       0.00000000       0.00000000 </v>
    <v>       0.00000000       5.68147787       0.00000000 </v>
    <v>       0.00000000       0.00000000       6.92370734 </v>
   </varray>
   <i name="volume">    282.25529817 </i>
   <varray name="rec_basis" >
    <v>       0.13936635       0.00000000       0.00000000 </v>
    <v>       0.00000000       0.17601054       0.00000000 </v>
    <v>       0.00000000       0.00000000       0.14443129 </v>
   </varray>
  </crystal>
  <varray name="positions" >
   <v>       0.00000000       0.75296269       0.27528115 </v>
   <v>       0.50000000       0.24703731       0.77528115 </v>
   <v>       0.23059222       0.54373009       0.23514676 </v>
   <v>       0.26940778       0.45626991       0.73514676 </v>
   <v>       0.73059222       0.45626991       0.73514676 </v>
   <v>       0.76940778       0.54373009       0.23514676 </v>
   <v>       0.00000000       0.96049766       0.03263590 </v>
   <v>       0.50000000       0.03950234       0.53263590 </v>
   <v>       0.00000000       0.92092898       0.52965635 </v>
   <v>       0.50000000       0.07907102       0.02965635 </v>
   <v>       0.00000000       0.37511115       0.98644804 </v>
   <v>       0.50000000       0.62488885       0.48644804 </v>
   <v>       0.28292434       0.78153348       0.95056936 </v>
   <v>       0.21707566       0.21846652       0.45056936 </v>
   <v>       0.78292434       0.21846652       0.45056936 </v>
   <v>       0.71707566       0.78153348       0.95056936 </v>
  </varray>
 </structure>
</modeling>
