unknown system                          
           1
     7.166537    0.000000    0.000000
     0.000000    5.682428    0.000000
     0.000000    0.000000    6.926355
   P    S    Li
   2   8   6
Direct configuration=     1
   0.00000000  0.75355612  0.27501048
   0.50000000  0.24644388  0.77501048
   0.23094519  0.54151807  0.24709611
   0.26905481  0.45848193  0.74709611
   0.73094519  0.45848193  0.74709611
   0.76905481  0.54151807  0.24709611
   0.00000000  0.93980624  0.02130888
   0.50000000  0.06019376  0.52130888
   0.00000000  0.94255803  0.51891291
   0.50000000  0.05744197  0.01891291
   0.00000000  0.37599568  0.98640183
   0.50000000  0.62400432  0.48640183
   0.28297476  0.78102388  0.94981368
   0.21702524  0.21897612  0.44981368
   0.78297476  0.21897612  0.44981368
   0.71702524  0.78102388  0.94981368
unknown system                          
           1
     7.215747    0.000000    0.000000
     0.000000    5.690805    0.000000
     0.000000    0.000000    6.939853
   P    S    Li
   2   8   6
Direct configuration=     2
   0.00000000  0.75177214  0.27485728
   0.50000000  0.24822786  0.77485728
   0.23082126  0.54349401  0.24537974
   0.26917874  0.45650599  0.74537974
   0.73082126  0.45650599  0.74537974
   0.76917874  0.54349401  0.24537974
   0.00000000  0.94321690  0.02185867
   0.50000000  0.05678310  0.52185867
   0.00000000  0.93903076  0.52038017
   0.50000000  0.06096924  0.02038017
   0.00000000  0.37480674  0.98680737
   0.50000000  0.62519326  0.48680737
   0.28293807  0.77898485  0.95039536
   0.21706193  0.22101515  0.45039536
   0.78293807  0.22101515  0.45039536
   0.71706193  0.77898485  0.95039536
unknown system                          
           1
     7.263393    0.000000    0.000000
     0.000000    5.698917    0.000000
     0.000000    0.000000    6.952921
   P    S    Li
   2   8   6
Direct configuration=     3
   0.00000000  0.75004741  0.27470924
   0.50000000  0.24995259  0.77470924
   0.23070209  0.54540432  0.24372117
   0.26929791  0.45459568  0.74372117
   0.73070209  0.45459568  0.74372117
   0.76929791  0.54540432  0.24372117
   0.00000000  0.94651427  0.02238994
   0.50000000  0.05348573  0.52238994
   0.00000000  0.93562065  0.52179803
   0.50000000  0.06437935  0.02179803
   0.00000000  0.37365729  0.98719925
   0.50000000  0.62634271  0.48719925
   0.28290279  0.77701355  0.95095745
   0.21709721  0.22298645  0.45095745
   0.78290279  0.22298645  0.45095745
   0.71709721  0.77701355  0.95095745
unknown system                          
           1
     7.273699    0.000000    0.000000
     0.000000    5.683548    0.000000
     0.000000    0.000000    6.929419
   P    S    Li
   2   8   6
Direct configuration=     4
   0.00000000  0.75271457  0.27411491
   0.50000000  0.24728543  0.77411491
   0.22997759  0.54703499  0.24147296
   0.27002241  0.45296501  0.74147296
   0.72997759  0.45296501  0.74147296
   0.77002241  0.54703499  0.24147296
   0.00000000  0.94836842  0.02481348
   0.50000000  0.05163158  0.52481348
   0.00000000  0.93081884  0.52216382
   0.50000000  0.06918116  0.02216382
   0.00000000  0.37201791  0.98783805
   0.50000000  0.62798209  0.48783805
   0.28277819  0.77553084  0.95178876
   0.21722181  0.22446916  0.45178876
   0.78277819  0.22446916  0.45178876
   0.71722181  0.77553084  0.95178876
unknown system                          
           1
     7.275076    0.000000    0.000000
     0.000000    5.681496    0.000000
     0.000000    0.000000    6.926281
   P    S    Li
   2   8   6
Direct configuration=     5
   0.00000000  0.75307162  0.27403529
   0.50000000  0.24692838  0.77403529
   0.22988099  0.54725329  0.24117178
   0.27011901  0.45274671  0.74117178
   0.72988099  0.45274671  0.74117178
   0.77011901  0.54725329  0.24117178
   0.00000000  0.94861664  0.02513814
   0.50000000  0.05138336  0.52513814
   0.00000000  0.93017602  0.52221282
   0.50000000  0.06982398  0.02221282
   0.00000000  0.37179845  0.98792363
   0.50000000  0.62820155  0.48792363
   0.28276158  0.77533235  0.95190012
   0.21723842  0.22466765  0.45190012
   0.78276158  0.22466765  0.45190012
   0.71723842  0.77533235  0.95190012
unknown system                          
           1
     7.249704    0.000000    0.000000
     0.000000    5.679337    0.000000
     0.000000    0.000000    6.942958
   P    S    Li
   2   8   6
Direct configuration=     6
   0.00000000  0.75443607  0.27318110
   0.50000000  0.24556393  0.77318110
   0.22933786  0.54729924  0.23970495
   0.27066214  0.45270076  0.73970495
   0.72933786  0.45270076  0.73970495
   0.77066214  0.54729924  0.23970495
   0.00000000  0.95052392  0.02571020
   0.50000000  0.04947608  0.52571020
   0.00000000  0.92898155  0.52390436
   0.50000000  0.07101845  0.02390436
   0.00000000  0.37083588  0.98839877
   0.50000000  0.62916412  0.48839877
   0.28275670  0.77515575  0.95242469
   0.21724330  0.22484425  0.45242469
   0.78275670  0.22484425  0.45242469
   0.71724330  0.77515575  0.95242469
unknown system                          
           1
     7.227329    0.000000    0.000000
     0.000000    5.677433    0.000000
     0.000000    0.000000    6.957666
   P    S    Li
   2   8   6
Direct configuration=     7
   0.00000000  0.75563984  0.27242959
   0.50000000  0.24436016  0.77242959
   0.22885720  0.54733979  0.23841445
   0.27114280  0.45266021  0.73841445
   0.72885720  0.45266021  0.73841445
   0.77114280  0.54733979  0.23841445
   0.00000000  0.95220660  0.02621350
   0.50000000  0.04779340  0.52621350
   0.00000000  0.92792774  0.52539255
   0.50000000  0.07207226  0.02539255
   0.00000000  0.36998666  0.98881679
   0.50000000  0.63001334  0.48881679
   0.28275238  0.77499995  0.95288619
   0.21724762  0.22500005  0.45288619
   0.78275238  0.22500005  0.45288619
   0.71724762  0.77499995  0.95288619
unknown system                          
           1
     7.234127    0.000000    0.000000
     0.000000    5.678011    0.000000
     0.000000    0.000000    6.953197
   P    S    Li
   2   8   6
Direct configuration=     8
   0.00000000  0.75527396  0.27265744
   0.50000000  0.24472604  0.77265744
   0.22900369  0.54732746  0.23880572
   0.27099631  0.45267254  0.73880572
   0.72900369  0.45267254  0.73880572
   0.77099631  0.54732746  0.23880572
   0.00000000  0.95169517  0.02606090
   0.50000000  0.04830483  0.52606090
   0.00000000  0.92824803  0.52494134
   0.50000000  0.07175197  0.02494134
   0.00000000  0.37024477  0.98869004
   0.50000000  0.62975523  0.48869004
   0.28275370  0.77504730  0.95274626
   0.21724630  0.22495270  0.45274626
   0.78275370  0.22495270  0.45274626
   0.71724630  0.77504730  0.95274626
unknown system                          
           1
     7.212223    0.000000    0.000000
     0.000000    5.682388    0.000000
     0.000000    0.000000    6.961058
   P    S    Li
   2   8   6
Direct configuration=     9
   0.00000000  0.75727204  0.27376893
   0.50000000  0.24272796  0.77376893
   0.22922660  0.54632217  0.23731002
   0.27077340  0.45367783  0.73731002
   0.72922660  0.45367783  0.73731002
   0.77077340  0.54632217  0.23731002
   0.00000000  0.95486072  0.02602762
   0.50000000  0.04513928  0.52602762
   0.00000000  0.92694298  0.52544730
   0.50000000  0.07305702  0.02544730
   0.00000000  0.36951292  0.98918715
   0.50000000  0.63048708  0.48918715
   0.28298825  0.77519568  0.95320133
   0.21701175  0.22480432  0.45320133
   0.78298825  0.22480432  0.45320133
   0.71701175  0.77519568  0.95320133
unknown system                          
           1
     7.215886    0.000000    0.000000
     0.000000    5.681656    0.000000
     0.000000    0.000000    6.959743
   P    S    Li
   2   8   6
Direct configuration=    10
   0.00000000  0.75693816  0.27358327
   0.50000000  0.24306184  0.77358327
   0.22918921  0.54649015  0.23755986
   0.27081079  0.45350985  0.73755986
   0.72918921  0.45350985  0.73755986
   0.77081079  0.54649015  0.23755986
   0.00000000  0.95433176  0.02603318
   0.50000000  0.04566824  0.52603318
   0.00000000  0.92716106  0.52536279
   0.50000000  0.07283894  0.02536279
   0.00000000  0.36963521  0.98910412
   0.50000000  0.63036479  0.48910412
   0.28294891  0.77517088  0.95312532
   0.21705109  0.22482912  0.45312532
   0.78294891  0.22482912  0.45312532
   0.71705109  0.77517088  0.95312532
unknown system                          
           1
     7.203606    0.000000    0.000000
     0.000000    5.680985    0.000000
     0.000000    0.000000    6.949001
   P    S    Li
   2   8   6
Direct configuration=    11
   0.00000000  0.75654326  0.27348254
   0.50000000  0.24345674  0.77348254
   0.22943231  0.54610031  0.23731021
   0.27056769  0.45389969  0.73731021
   0.72943231  0.45389969  0.73731021
   0.77056769  0.54610031  0.23731021
   0.00000000  0.95541377  0.02656023
   0.50000000  0.04458623  0.52656023
   0.00000000  0.92708719  0.52526445
   0.50000000  0.07291281  0.02526445
   0.00000000  0.36991162  0.98922347
   0.50000000  0.63008838  0.48922347
   0.28311810  0.77534751  0.95315130
   0.21688190  0.22465249  0.45315130
   0.78311810  0.22465249  0.45315130
   0.71688190  0.77534751  0.95315130
unknown system                          
           1
     7.180353    0.000000    0.000000
     0.000000    5.679716    0.000000
     0.000000    0.000000    6.928660
   P    S    Li
   2   8   6
Direct configuration=    12
   0.00000000  0.75579544  0.27329153
   0.50000000  0.24420456  0.77329153
   0.22989340  0.54536207  0.23683677
   0.27010660  0.45463793  0.73683677
   0.72989340  0.45463793  0.73683677
   0.77010660  0.54536207  0.23683677
   0.00000000  0.95746278  0.02755973
   0.50000000  0.04253722  0.52755973
   0.00000000  0.92694732  0.52507798
   0.50000000  0.07305268  0.02507798
   0.00000000  0.37043508  0.98944980
   0.50000000  0.62956492  0.48944980
   0.28343902  0.77568198  0.95320056
   0.21656098  0.22431802  0.45320056
   0.78343902  0.22431802  0.45320056
   0.71656098  0.77568198  0.95320056
unknown system                          
           1
     7.187141    0.000000    0.000000
     0.000000    5.680086    0.000000
     0.000000    0.000000    6.934598
   P    S    Li
   2   8   6
Direct configuration=    13
   0.00000000  0.75601379  0.27334745
   0.50000000  0.24398621  0.77334745
   0.22975837  0.54557762  0.23697538
   0.27024163  0.45442238  0.73697538
   0.72975837  0.45442238  0.73697538
   0.77024163  0.54557762  0.23697538
   0.00000000  0.95686452  0.02726710
   0.50000000  0.04313548  0.52726710
   0.00000000  0.92698816  0.52513257
   0.50000000  0.07301184  0.02513257
   0.00000000  0.37028224  0.98938354
   0.50000000  0.62971776  0.48938354
   0.28334503  0.77558432  0.95318614
   0.21665497  0.22441568  0.45318614
   0.78334503  0.22441568  0.45318614
   0.71665497  0.77558432  0.95318614
unknown system                          
           1
     7.181225    0.000000    0.000000
     0.000000    5.685976    0.000000
     0.000000    0.000000    6.936161
   P    S    Li
   2   8   6
Direct configuration=    14
   0.00000000  0.75543962  0.27293090
   0.50000000  0.24456038  0.77293090
   0.23027091  0.54501342  0.23678117
   0.26972909  0.45498658  0.73678117
   0.73027091  0.45498658  0.73678117
   0.76972909  0.54501342  0.23678117
   0.00000000  0.95768248  0.02788040
   0.50000000  0.04231752  0.52788040
   0.00000000  0.92692420  0.52557339
   0.50000000  0.07307580  0.02557339
   0.00000000  0.37096309  0.98943503
   0.50000000  0.62903691  0.48943503
   0.28347035  0.77593127  0.95303582
   0.21652965  0.22406873  0.45303582
   0.78347035  0.22406873  0.45303582
   0.71652965  0.77593127  0.95303582
unknown system                          
           1
     7.181517    0.000000    0.000000
     0.000000    5.685685    0.000000
     0.000000    0.000000    6.936084
   P    S    Li
   2   8   6
Direct configuration=    15
   0.00000000  0.75546794  0.27295145
   0.50000000  0.24453206  0.77295145
   0.23024559  0.54504124  0.23679075
   0.26975441  0.45495876  0.73679075
   0.73024559  0.45495876  0.73679075
   0.76975441  0.54504124  0.23679075
   0.00000000  0.95764214  0.02785013
   0.50000000  0.04235786  0.52785013
   0.00000000  0.92692736  0.52555164
   0.50000000  0.07307264  0.02555164
   0.00000000  0.37092952  0.98943248
   0.50000000  0.62907048  0.48943248
   0.28346416  0.77591416  0.95304324
   0.21653584  0.22408584  0.45304324
   0.78346416  0.22408584  0.45304324
   0.71653584  0.77591416  0.95304324
unknown system                          
           1
     7.177076    0.000000    0.000000
     0.000000    5.688032    0.000000
     0.000000    0.000000    6.938122
   P    S    Li
   2   8   6
Direct configuration=    16
   0.00000000  0.75533947  0.27318545
   0.50000000  0.24466053  0.77318545
   0.23052558  0.54478992  0.23664938
   0.26947442  0.45521008  0.73664938
   0.73052558  0.45521008  0.73664938
   0.76947442  0.54478992  0.23664938
   0.00000000  0.95771320  0.02837020
   0.50000000  0.04228680  0.52837020
   0.00000000  0.92630925  0.52558065
   0.50000000  0.07369075  0.02558065
   0.00000000  0.37164122  0.98940581
   0.50000000  0.62835878  0.48940581
   0.28349767  0.77630577  0.95280641
   0.21650233  0.22369423  0.45280641
   0.78349767  0.22369423  0.45280641
   0.71650233  0.77630577  0.95280641
unknown system                          
           1
     7.165675    0.000000    0.000000
     0.000000    5.694055    0.000000
     0.000000    0.000000    6.943355
   P    S    Li
   2   8   6
Direct configuration=    17
   0.00000000  0.75500986  0.27378591
   0.50000000  0.24499014  0.77378591
   0.23124471  0.54414508  0.23628661
   0.26875529  0.45585492  0.73628661
   0.73124471  0.45585492  0.73628661
   0.76875529  0.54414508  0.23628661
   0.00000000  0.95789551  0.02970476
   0.50000000  0.04210449  0.52970476
   0.00000000  0.92472330  0.52565512
   0.50000000  0.07527670  0.02565512
   0.00000000  0.37346733  0.98933734
   0.50000000  0.62653267  0.48933734
   0.28358375  0.77731056  0.95219868
   0.21641625  0.22268944  0.45219868
   0.78358375  0.22268944  0.45219868
   0.71641625  0.77731056  0.95219868
unknown system                          
           1
     7.162841    0.000000    0.000000
     0.000000    5.694190    0.000000
     0.000000    0.000000    6.944657
   P    S    Li
   2   8   6
Direct configuration=    18
   0.00000000  0.75482459  0.27383174
   0.50000000  0.24517541  0.77383174
   0.23130790  0.54410275  0.23623232
   0.26869210  0.45589725  0.73623232
   0.73130790  0.45589725  0.73623232
   0.76869210  0.54410275  0.23623232
   0.00000000  0.95792908  0.02992916
   0.50000000  0.04207092  0.52992916
   0.00000000  0.92447058  0.52572273
   0.50000000  0.07552942  0.02572273
   0.00000000  0.37375659  0.98931818
   0.50000000  0.62624341  0.48931818
   0.28359248  0.77747507  0.95209362
   0.21640752  0.22252493  0.45209362
   0.78359248  0.22252493  0.45209362
   0.71640752  0.77747507  0.95209362
unknown system                          
           1
     7.154339    0.000000    0.000000
     0.000000    5.694595    0.000000
     0.000000    0.000000    6.948564
   P    S    Li
   2   8   6
Direct configuration=    19
   0.00000000  0.75426877  0.27396923
   0.50000000  0.24573123  0.77396923
   0.23149754  0.54397574  0.23606950
   0.26850246  0.45602426  0.73606950
   0.73149754  0.45602426  0.73606950
   0.76850246  0.54397574  0.23606950
   0.00000000  0.95802979  0.03060226
   0.50000000  0.04197021  0.53060226
   0.00000000  0.92371245  0.52592553
   0.50000000  0.07628755  0.02592553
   0.00000000  0.37462433  0.98926068
   0.50000000  0.62537567  0.48926068
   0.28361869  0.77796859  0.95177850
   0.21638131  0.22203141  0.45177850
   0.78361869  0.22203141  0.45177850
   0.71638131  0.77796859  0.95177850
unknown system                          
           1
     7.137335    0.000000    0.000000
     0.000000    5.695405    0.000000
     0.000000    0.000000    6.956377
   P    S    Li
   2   8   6
Direct configuration=    20
   0.00000000  0.75315722  0.27424406
   0.50000000  0.24684278  0.77424406
   0.23187727  0.54372175  0.23574402
   0.26812273  0.45627825  0.73574402
   0.73187727  0.45627825  0.73574402
   0.76812273  0.54372175  0.23574402
   0.00000000  0.95823119  0.03194770
   0.50000000  0.04176881  0.53194770
   0.00000000  0.92219628  0.52633089
   0.50000000  0.07780372  0.02633089
   0.00000000  0.37635968  0.98914576
   0.50000000  0.62364032  0.48914576
   0.28367117  0.77895555  0.95114862
   0.21632883  0.22104445  0.45114862
   0.78367117  0.22104445  0.45114862
   0.71632883  0.77895555  0.95114862
unknown system                          
           1
     7.144734    0.000000    0.000000
     0.000000    5.695053    0.000000
     0.000000    0.000000    6.952977
   P    S    Li
   2   8   6
Direct configuration=    21
   0.00000000  0.75364082  0.27412461
   0.50000000  0.24635918  0.77412461
   0.23171164  0.54383225  0.23588549
   0.26828836  0.45616775  0.73588549
   0.73171164  0.45616775  0.73588549
   0.76828836  0.54383225  0.23588549
   0.00000000  0.95814357  0.03136291
   0.50000000  0.04185643  0.53136291
   0.00000000  0.92285592  0.52615470
   0.50000000  0.07714408  0.02615470
   0.00000000  0.37560468  0.98919571
   0.50000000  0.62439532  0.48919571
   0.28364828  0.77852615  0.95142239
   0.21635172  0.22147385  0.45142239
   0.78364828  0.22147385  0.45142239
   0.71635172  0.77852615  0.95142239
unknown system                          
           1
     7.146188    0.000000    0.000000
     0.000000    5.693408    0.000000
     0.000000    0.000000    6.952355
   P    S    Li
   2   8   6
Direct configuration=    22
   0.00000000  0.75355515  0.27407379
   0.50000000  0.24644485  0.77407379
   0.23167675  0.54388693  0.23588852
   0.26832325  0.45611307  0.73588852
   0.73167675  0.45611307  0.73588852
   0.76832325  0.54388693  0.23588852
   0.00000000  0.95823001  0.03136281
   0.50000000  0.04176999  0.53136281
   0.00000000  0.92284645  0.52623529
   0.50000000  0.07715355  0.02623529
   0.00000000  0.37550916  0.98917239
   0.50000000  0.62449084  0.48917239
   0.28364282  0.77850959  0.95141618
   0.21635718  0.22149041  0.45141618
   0.78364282  0.22149041  0.45141618
   0.71635718  0.77850959  0.95141618
unknown system                          
           1
     7.150551    0.000000    0.000000
     0.000000    5.688474    0.000000
     0.000000    0.000000    6.950490
   P    S    Li
   2   8   6
Direct configuration=    23
   0.00000000  0.75329807  0.27392131
   0.50000000  0.24670193  0.77392131
   0.23157209  0.54405101  0.23589764
   0.26842791  0.45594899  0.73589764
   0.73157209  0.45594899  0.73589764
   0.76842791  0.54405101  0.23589764
   0.00000000  0.95848941  0.03136250
   0.50000000  0.04151059  0.53136250
   0.00000000  0.92281804  0.52647709
   0.50000000  0.07718196  0.02647709
   0.00000000  0.37522253  0.98910244
   0.50000000  0.62477747  0.48910244
   0.28362647  0.77845990  0.95139755
   0.21637353  0.22154010  0.45139755
   0.78362647  0.22154010  0.45139755
   0.71637353  0.77845990  0.95139755
unknown system                          
           1
     7.153082    0.000000    0.000000
     0.000000    5.686796    0.000000
     0.000000    0.000000    6.949476
   P    S    Li
   2   8   6
Direct configuration=    24
   0.00000000  0.75337527  0.27399855
   0.50000000  0.24662473  0.77399855
   0.23156365  0.54405490  0.23588004
   0.26843635  0.45594510  0.73588004
   0.73156365  0.45594510  0.73588004
   0.76843635  0.54405490  0.23588004
   0.00000000  0.95860306  0.03136717
   0.50000000  0.04139694  0.53136717
   0.00000000  0.92271051  0.52653117
   0.50000000  0.07728949  0.02653117
   0.00000000  0.37510715  0.98905245
   0.50000000  0.62489285  0.48905245
   0.28361595  0.77849437  0.95137213
   0.21638405  0.22150563  0.45137213
   0.78361595  0.22150563  0.45137213
   0.71638405  0.77849437  0.95137213
unknown system                          
           1
     7.157202    0.000000    0.000000
     0.000000    5.684064    0.000000
     0.000000    0.000000    6.947826
   P    S    Li
   2   8   6
Direct configuration=    25
   0.00000000  0.75350094  0.27412426
   0.50000000  0.24649906  0.77412426
   0.23154993  0.54406123  0.23585142
   0.26845007  0.45593877  0.73585142
   0.73154993  0.45593877  0.73585142
   0.76845007  0.54406123  0.23585142
   0.00000000  0.95878807  0.03137478
   0.50000000  0.04121193  0.53137478
   0.00000000  0.92253547  0.52661920
   0.50000000  0.07746453  0.02661920
   0.00000000  0.37491933  0.98897111
   0.50000000  0.62508067  0.48897111
   0.28359886  0.77855048  0.95133076
   0.21640114  0.22144952  0.45133076
   0.78359886  0.22144952  0.45133076
   0.71640114  0.77855048  0.95133076
unknown system                          
           1
     7.158481    0.000000    0.000000
     0.000000    5.682261    0.000000
     0.000000    0.000000    6.947993
   P    S    Li
   2   8   6
Direct configuration=    26
   0.00000000  0.75347949  0.27412109
   0.50000000  0.24652051  0.77412109
   0.23148059  0.54408962  0.23581972
   0.26851941  0.45591038  0.73581972
   0.73148059  0.45591038  0.73581972
   0.76851941  0.54408962  0.23581972
   0.00000000  0.95890628  0.03139122
   0.50000000  0.04109372  0.53139122
   0.00000000  0.92245569  0.52681917
   0.50000000  0.07754431  0.02681917
   0.00000000  0.37480315  0.98888887
   0.50000000  0.62519685  0.48888887
   0.28356988  0.77863464  0.95129696
   0.21643012  0.22136536  0.45129696
   0.78356988  0.22136536  0.45129696
   0.71643012  0.77863464  0.95129696
unknown system                          
           1
     7.161410    0.000000    0.000000
     0.000000    5.678133    0.000000
     0.000000    0.000000    6.948377
   P    S    Li
   2   8   6
Direct configuration=    27
   0.00000000  0.75343039  0.27411384
   0.50000000  0.24656961  0.77411384
   0.23132192  0.54415464  0.23574716
   0.26867808  0.45584536  0.73574716
   0.73132192  0.45584536  0.73574716
   0.76867808  0.54415464  0.23574716
   0.00000000  0.95917697  0.03142884
   0.50000000  0.04082303  0.53142884
   0.00000000  0.92227302  0.52727690
   0.50000000  0.07772698  0.02727690
   0.00000000  0.37453711  0.98870063
   0.50000000  0.62546289  0.48870063
   0.28350355  0.77882733  0.95121959
   0.21649645  0.22117267  0.45121959
   0.78350355  0.22117267  0.45121959
   0.71649645  0.77882733  0.95121959
unknown system                          
           1
     7.162856    0.000000    0.000000
     0.000000    5.676813    0.000000
     0.000000    0.000000    6.947313
   P    S    Li
   2   8   6
Direct configuration=    28
   0.00000000  0.75349560  0.27419509
   0.50000000  0.24650440  0.77419509
   0.23126482  0.54415398  0.23570337
   0.26873518  0.45584602  0.73570337
   0.73126482  0.45584602  0.73570337
   0.76873518  0.54415398  0.23570337
   0.00000000  0.95926382  0.03147209
   0.50000000  0.04073618  0.53147209
   0.00000000  0.92215596  0.52741413
   0.50000000  0.07784404  0.02741413
   0.00000000  0.37445375  0.98859687
   0.50000000  0.62554625  0.48859687
   0.28347018  0.77895387  0.95118439
   0.21652982  0.22104613  0.45118439
   0.78347018  0.22104613  0.45118439
   0.71652982  0.77895387  0.95118439
unknown system                          
           1
     7.167058    0.000000    0.000000
     0.000000    5.672977    0.000000
     0.000000    0.000000    6.944221
   P    S    Li
   2   8   6
Direct configuration=    29
   0.00000000  0.75368508  0.27443118
   0.50000000  0.24631492  0.77443118
   0.23109897  0.54415207  0.23557614
   0.26890103  0.45584793  0.73557614
   0.73109897  0.45584793  0.73557614
   0.76890103  0.54415207  0.23557614
   0.00000000  0.95951620  0.03159773
   0.50000000  0.04048380  0.53159773
   0.00000000  0.92181580  0.52781285
   0.50000000  0.07818420  0.02781285
   0.00000000  0.37421153  0.98829538
   0.50000000  0.62578847  0.48829538
   0.28337323  0.77932156  0.95108214
   0.21662677  0.22067844  0.45108214
   0.78337323  0.22067844  0.45108214
   0.71662677  0.77932156  0.95108214
unknown system                          
           1
     7.167938    0.000000    0.000000
     0.000000    5.673687    0.000000
     0.000000    0.000000    6.942749
   P    S    Li
   2   8   6
Direct configuration=    30
   0.00000000  0.75363938  0.27449784
   0.50000000  0.24636062  0.77449784
   0.23105739  0.54412313  0.23553354
   0.26894261  0.45587687  0.73553354
   0.73105739  0.45587687  0.73553354
   0.76894261  0.54412313  0.23553354
   0.00000000  0.95958447  0.03165941
   0.50000000  0.04041553  0.53165941
   0.00000000  0.92176258  0.52796222
   0.50000000  0.07823742  0.02796222
   0.00000000  0.37425315  0.98816345
   0.50000000  0.62574685  0.48816345
   0.28333603  0.77948778  0.95105185
   0.21666397  0.22051222  0.45105185
   0.78333603  0.22051222  0.45105185
   0.71666397  0.77948778  0.95105185
unknown system                          
           1
     7.170579    0.000000    0.000000
     0.000000    5.675817    0.000000
     0.000000    0.000000    6.938334
   P    S    Li
   2   8   6
Direct configuration=    31
   0.00000000  0.75350229  0.27469784
   0.50000000  0.24649771  0.77469784
   0.23093266  0.54403633  0.23540572
   0.26906734  0.45596367  0.73540572
   0.73093266  0.45596367  0.73540572
   0.76906734  0.54403633  0.23540572
   0.00000000  0.95978927  0.03184447
   0.50000000  0.04021073  0.53184447
   0.00000000  0.92160291  0.52841040
   0.50000000  0.07839709  0.02841040
   0.00000000  0.37437802  0.98776760
   0.50000000  0.62562198  0.48776760
   0.28322447  0.77998636  0.95096097
   0.21677553  0.22001364  0.45096097
   0.78322447  0.22001364  0.45096097
   0.71677553  0.77998636  0.95096097
unknown system                          
           1
     7.175859    0.000000    0.000000
     0.000000    5.680077    0.000000
     0.000000    0.000000    6.929504
   P    S    Li
   2   8   6
Direct configuration=    32
   0.00000000  0.75322821  0.27509811
   0.50000000  0.24677179  0.77509811
   0.23068330  0.54386279  0.23514991
   0.26931670  0.45613721  0.73514991
   0.73068330  0.45613721  0.73514991
   0.76931670  0.54386279  0.23514991
   0.00000000  0.96019872  0.03221484
   0.50000000  0.03980128  0.53221484
   0.00000000  0.92128370  0.52930735
   0.50000000  0.07871630  0.02930735
   0.00000000  0.37462765  0.98697539
   0.50000000  0.62537235  0.48697539
   0.28300143  0.78098316  0.95077910
   0.21699857  0.21901684  0.45077910
   0.78300143  0.21901684  0.45077910
   0.71699857  0.78098316  0.95077910
unknown system                          
           1
     7.175016    0.000000    0.000000
     0.000000    5.680318    0.000000
     0.000000    0.000000    6.925918
   P    S    Li
   2   8   6
Direct configuration=    33
   0.00000000  0.75313162  0.27516411
   0.50000000  0.24686838  0.77516411
   0.23060279  0.54384302  0.23513393
   0.26939721  0.45615698  0.73513393
   0.73060279  0.45615698  0.73513393
   0.76939721  0.54384302  0.23513393
   0.00000000  0.96025470  0.03239073
   0.50000000  0.03974530  0.53239073
   0.00000000  0.92115021  0.52943585
   0.50000000  0.07884979  0.02943585
   0.00000000  0.37477966  0.98676727
   0.50000000  0.62522034  0.48676727
   0.28295691  0.78122084  0.95071394
   0.21704309  0.21877916  0.45071394
   0.78295691  0.21877916  0.45071394
   0.71704309  0.78122084  0.95071394
unknown system                          
           1
     7.172486    0.000000    0.000000
     0.000000    5.681042    0.000000
     0.000000    0.000000    6.915162
   P    S    Li
   2   8   6
Direct configuration=    34
   0.00000000  0.75284185  0.27536223
   0.50000000  0.24715815  0.77536223
   0.23036124  0.54378371  0.23508595
   0.26963876  0.45621629  0.73508595
   0.73036124  0.45621629  0.73508595
   0.76963876  0.54378371  0.23508595
   0.00000000  0.96042264  0.03291867
   0.50000000  0.03957736  0.53291867
   0.00000000  0.92074975  0.52982158
   0.50000000  0.07925025  0.02982158
   0.00000000  0.37523569  0.98614260
   0.50000000  0.62476431  0.48614260
   0.28282333  0.78193386  0.95051835
   0.21717667  0.21806614  0.45051835
   0.78282333  0.21806614  0.45051835
   0.71717667  0.78193386  0.95051835
unknown system                          
           1
     7.173787    0.000000    0.000000
     0.000000    5.680670    0.000000
     0.000000    0.000000    6.920693
   P    S    Li
   2   8   6
Direct configuration=    35
   0.00000000  0.75299084  0.27526019
   0.50000000  0.24700916  0.77526019
   0.23048550  0.54381421  0.23511066
   0.26951450  0.45618579  0.73511066
   0.73048550  0.45618579  0.73511066
   0.76951450  0.54381421  0.23511066
   0.00000000  0.96033629  0.03264675
   0.50000000  0.03966371  0.53264675
   0.00000000  0.92095566  0.52962291
   0.50000000  0.07904434  0.02962291
   0.00000000  0.37500120  0.98646434
   0.50000000  0.62499880  0.48646434
   0.28289205  0.78156723  0.95061909
   0.21710795  0.21843277  0.45061909
   0.78289205  0.21843277  0.45061909
   0.71710795  0.78156723  0.95061909
unknown system                          
           1
     7.174980    0.000000    0.000000
     0.000000    5.681293    0.000000
     0.000000    0.000000    6.923019
   P    S    Li
   2   8   6
Direct configuration=    36
   0.00000000  0.75296912  0.27527636
   0.50000000  0.24703088  0.77527636
   0.23056785  0.54374930  0.23513852
   0.26943215  0.45625070  0.73513852
   0.73056785  0.45625070  0.73513852
   0.76943215  0.54374930  0.23513852
   0.00000000  0.96046081  0.03263838
   0.50000000  0.03953919  0.53263838
   0.00000000  0.92093508  0.52964871
   0.50000000  0.07906492  0.02964871
   0.00000000  0.37508605  0.98645176
   0.50000000  0.62491395  0.48645176
   0.28291696  0.78154119  0.95058071
   0.21708304  0.21845881  0.45058071
   0.78291696  0.21845881  0.45058071
   0.71708304  0.78154119  0.95058071