  16  16   0   0
  0.1803581E+02  0.7580224E-09  0.6333473E-09  0.6010791E-09  0.5000000E-15
  1.000000000000000E-004
  CAR 
 unknown system                          
     11.27269311    -43.38635366  301      2.39059801      1.00000000
    -43.386  0.0000E+00  0.0000E+00
    -43.204  0.0000E+00  0.0000E+00
    -43.022  0.0000E+00  0.0000E+00
    -42.840  0.0000E+00  0.0000E+00
    -42.658  0.0000E+00  0.0000E+00
    -42.475  0.0000E+00  0.0000E+00
    -42.293  0.0000E+00  0.0000E+00
    -42.111  0.0000E+00  0.0000E+00
    -41.929  0.0000E+00  0.0000E+00
    -41.747  0.0000E+00  0.0000E+00
    -41.564  0.0000E+00  0.0000E+00
    -41.382  0.0000E+00  0.0000E+00
    -41.200  0.0000E+00  0.0000E+00
    -41.018  0.0000E+00  0.0000E+00
    -40.836  0.0000E+00  0.4000E+01
    -40.653  0.0000E+00  0.1200E+02
    -40.471  0.0000E+00  0.1200E+02
    -40.289  0.0000E+00  0.1200E+02
    -40.107  0.0000E+00  0.1200E+02
    -39.925  0.0000E+00  0.1200E+02
    -39.742  0.0000E+00  0.1200E+02
    -39.560  0.0000E+00  0.1200E+02
    -39.378  0.0000E+00  0.1200E+02
    -39.196  0.0000E+00  0.1200E+02
    -39.014  0.0000E+00  0.1200E+02
    -38.831  0.0000E+00  0.1200E+02
    -38.649  0.0000E+00  0.1200E+02
    -38.467  0.0000E+00  0.1200E+02
    -38.285  0.0000E+00  0.1200E+02
    -38.103  0.0000E+00  0.1200E+02
    -37.920  0.0000E+00  0.1200E+02
    -37.738  0.0000E+00  0.1200E+02
    -37.556  0.0000E+00  0.1200E+02
    -37.374  0.0000E+00  0.1200E+02
    -37.192  0.0000E+00  0.1200E+02
    -37.009  0.0000E+00  0.1200E+02
    -36.827  0.0000E+00  0.1200E+02
    -36.645  0.0000E+00  0.1200E+02
    -36.463  0.0000E+00  0.1200E+02
    -36.281  0.0000E+00  0.1200E+02
    -36.098  0.0000E+00  0.1200E+02
    -35.916  0.0000E+00  0.1200E+02
    -35.734  0.0000E+00  0.1200E+02
    -35.552  0.0000E+00  0.1200E+02
    -35.370  0.0000E+00  0.1200E+02
    -35.187  0.0000E+00  0.1200E+02
    -35.005  0.0000E+00  0.1200E+02
    -34.823  0.0000E+00  0.1200E+02
    -34.641  0.0000E+00  0.1200E+02
    -34.459  0.0000E+00  0.1200E+02
    -34.277  0.0000E+00  0.1200E+02
    -34.094  0.0000E+00  0.1200E+02
    -33.912  0.0000E+00  0.1200E+02
    -33.730  0.0000E+00  0.1200E+02
    -33.548  0.0000E+00  0.1200E+02
    -33.366  0.0000E+00  0.1200E+02
    -33.183  0.0000E+00  0.1200E+02
    -33.001  0.0000E+00  0.1200E+02
    -32.819  0.0000E+00  0.1200E+02
    -32.637  0.0000E+00  0.1200E+02
    -32.455  0.0000E+00  0.1200E+02
    -32.272  0.0000E+00  0.1200E+02
    -32.090  0.0000E+00  0.1200E+02
    -31.908  0.0000E+00  0.1200E+02
    -31.726  0.0000E+00  0.1200E+02
    -31.544  0.0000E+00  0.1200E+02
    -31.361  0.0000E+00  0.1200E+02
    -31.179  0.0000E+00  0.1200E+02
    -30.997  0.0000E+00  0.1200E+02
    -30.815  0.0000E+00  0.1200E+02
    -30.633  0.0000E+00  0.1200E+02
    -30.450  0.0000E+00  0.1200E+02
    -30.268  0.0000E+00  0.1200E+02
    -30.086  0.0000E+00  0.1200E+02
    -29.904  0.0000E+00  0.1200E+02
    -29.722  0.0000E+00  0.1200E+02
    -29.539  0.0000E+00  0.1200E+02
    -29.357  0.0000E+00  0.1200E+02
    -29.175  0.0000E+00  0.1200E+02
    -28.993  0.0000E+00  0.1200E+02
    -28.811  0.0000E+00  0.1200E+02
    -28.628  0.0000E+00  0.1200E+02
    -28.446  0.0000E+00  0.1200E+02
    -28.264  0.0000E+00  0.1200E+02
    -28.082  0.0000E+00  0.1200E+02
    -27.900  0.0000E+00  0.1200E+02
    -27.717  0.0000E+00  0.1200E+02
    -27.535  0.0000E+00  0.1200E+02
    -27.353  0.0000E+00  0.1200E+02
    -27.171  0.0000E+00  0.1200E+02
    -26.989  0.0000E+00  0.1200E+02
    -26.806  0.0000E+00  0.1200E+02
    -26.624  0.0000E+00  0.1200E+02
    -26.442  0.0000E+00  0.1200E+02
    -26.260  0.0000E+00  0.1200E+02
    -26.078  0.0000E+00  0.1200E+02
    -25.895  0.0000E+00  0.1200E+02
    -25.713  0.0000E+00  0.1200E+02
    -25.531  0.0000E+00  0.1200E+02
    -25.349  0.0000E+00  0.1200E+02
    -25.167  0.0000E+00  0.1200E+02
    -24.984  0.0000E+00  0.1200E+02
    -24.802  0.0000E+00  0.1200E+02
    -24.620  0.0000E+00  0.1200E+02
    -24.438  0.0000E+00  0.1200E+02
    -24.256  0.0000E+00  0.1200E+02
    -24.073  0.0000E+00  0.1200E+02
    -23.891  0.0000E+00  0.1200E+02
    -23.709  0.0000E+00  0.1200E+02
    -23.527  0.0000E+00  0.1200E+02
    -23.345  0.0000E+00  0.1200E+02
    -23.163  0.0000E+00  0.1200E+02
    -22.980  0.0000E+00  0.1200E+02
    -22.798  0.0000E+00  0.1200E+02
    -22.616  0.0000E+00  0.1200E+02
    -22.434  0.0000E+00  0.1200E+02
    -22.252  0.0000E+00  0.1200E+02
    -22.069  0.0000E+00  0.1200E+02
    -21.887  0.0000E+00  0.1200E+02
    -21.705  0.0000E+00  0.1200E+02
    -21.523  0.0000E+00  0.1200E+02
    -21.341  0.0000E+00  0.1200E+02
    -21.158  0.0000E+00  0.1200E+02
    -20.976  0.0000E+00  0.1200E+02
    -20.794  0.0000E+00  0.1200E+02
    -20.612  0.0000E+00  0.1200E+02
    -20.430  0.0000E+00  0.1200E+02
    -20.247  0.0000E+00  0.1200E+02
    -20.065  0.0000E+00  0.1200E+02
    -19.883  0.0000E+00  0.1200E+02
    -19.701  0.0000E+00  0.1200E+02
    -19.519  0.0000E+00  0.1200E+02
    -19.336  0.0000E+00  0.1200E+02
    -19.154  0.0000E+00  0.1200E+02
    -18.972  0.0000E+00  0.1200E+02
    -18.790  0.0000E+00  0.1200E+02
    -18.608  0.0000E+00  0.1200E+02
    -18.425  0.0000E+00  0.1200E+02
    -18.243  0.0000E+00  0.1200E+02
    -18.061  0.0000E+00  0.1200E+02
    -17.879  0.0000E+00  0.1200E+02
    -17.697  0.0000E+00  0.1200E+02
    -17.514  0.0000E+00  0.1200E+02
    -17.332  0.0000E+00  0.1200E+02
    -17.150  0.0000E+00  0.1200E+02
    -16.968  0.0000E+00  0.1200E+02
    -16.786  0.0000E+00  0.1200E+02
    -16.603  0.0000E+00  0.1200E+02
    -16.421  0.0000E+00  0.1200E+02
    -16.239  0.0000E+00  0.1200E+02
    -16.057  0.0000E+00  0.1200E+02
    -15.875  0.0000E+00  0.1200E+02
    -15.692  0.0000E+00  0.1200E+02
    -15.510  0.0000E+00  0.1200E+02
    -15.328  0.0000E+00  0.1200E+02
    -15.146  0.0000E+00  0.1200E+02
    -14.964  0.0000E+00  0.1200E+02
    -14.781  0.0000E+00  0.1200E+02
    -14.599  0.0000E+00  0.1200E+02
    -14.417  0.0000E+00  0.1200E+02
    -14.235  0.0000E+00  0.1200E+02
    -14.053  0.0000E+00  0.1200E+02
    -13.870  0.0000E+00  0.1200E+02
    -13.688  0.0000E+00  0.1200E+02
    -13.506  0.0000E+00  0.1200E+02
    -13.324  0.0000E+00  0.1200E+02
    -13.142  0.0000E+00  0.1200E+02
    -12.959  0.0000E+00  0.1200E+02
    -12.777  0.0000E+00  0.1200E+02
    -12.595  0.5230E+01  0.1207E+02
    -12.413  0.0000E+00  0.1600E+02
    -12.231  0.0000E+00  0.1600E+02
    -12.049  0.0000E+00  0.1600E+02
    -11.866  0.0000E+00  0.1600E+02
    -11.684  0.0000E+00  0.1600E+02
    -11.502  0.0000E+00  0.1600E+02
    -11.320  0.0000E+00  0.1600E+02
    -11.138  0.0000E+00  0.1600E+02
    -10.955  0.0000E+00  0.1600E+02
    -10.773  0.0000E+00  0.1600E+02
    -10.591  0.0000E+00  0.1600E+02
    -10.409  0.0000E+00  0.1600E+02
    -10.227  0.0000E+00  0.1600E+02
    -10.044  0.0000E+00  0.1600E+02
     -9.862  0.0000E+00  0.1600E+02
     -9.680  0.0000E+00  0.1600E+02
     -9.498  0.1995E+02  0.2055E+02
     -9.316  0.0000E+00  0.2800E+02
     -9.133  0.0000E+00  0.2800E+02
     -8.951  0.0000E+00  0.2800E+02
     -8.769  0.0000E+00  0.2800E+02
     -8.587  0.0000E+00  0.2800E+02
     -8.405  0.0000E+00  0.2800E+02
     -8.222  0.0000E+00  0.2800E+02
     -8.040  0.0000E+00  0.2800E+02
     -7.858  0.0000E+00  0.2800E+02
     -7.676  0.0000E+00  0.2800E+02
     -7.494  0.0000E+00  0.2800E+02
     -7.311  0.0000E+00  0.2800E+02
     -7.129  0.0000E+00  0.2800E+02
     -6.947  0.0000E+00  0.2800E+02
     -6.765  0.0000E+00  0.2800E+02
     -6.583  0.0000E+00  0.2800E+02
     -6.400  0.0000E+00  0.2800E+02
     -6.218  0.0000E+00  0.2800E+02
     -6.036  0.0000E+00  0.2800E+02
     -5.854  0.0000E+00  0.2800E+02
     -5.672  0.0000E+00  0.2800E+02
     -5.489  0.1473E+01  0.2808E+02
     -5.307  0.9855E+01  0.2924E+02
     -5.125  0.3206E+01  0.3197E+02
     -4.943  0.0000E+00  0.3200E+02
     -4.761  0.0000E+00  0.3200E+02
     -4.578  0.0000E+00  0.3200E+02
     -4.396  0.0000E+00  0.3200E+02
     -4.214  0.0000E+00  0.3200E+02
     -4.032  0.0000E+00  0.3200E+02
     -3.850  0.0000E+00  0.3200E+02
     -3.667  0.0000E+00  0.3200E+02
     -3.485  0.0000E+00  0.3200E+02
     -3.303  0.0000E+00  0.3200E+02
     -3.121  0.0000E+00  0.3200E+02
     -2.939  0.0000E+00  0.3200E+02
     -2.756  0.0000E+00  0.3200E+02
     -2.574  0.1008E+02  0.3259E+02
     -2.392  0.1600E+02  0.3554E+02
     -2.210  0.2101E+02  0.3892E+02
     -2.028  0.2120E+02  0.4330E+02
     -1.845  0.0000E+00  0.4400E+02
     -1.663  0.0000E+00  0.4400E+02
     -1.481  0.0000E+00  0.4400E+02
     -1.299  0.0000E+00  0.4400E+02
     -1.117  0.0000E+00  0.4400E+02
     -0.934  0.0000E+00  0.4400E+02
     -0.752  0.0000E+00  0.4400E+02
     -0.570  0.0000E+00  0.4400E+02
     -0.388  0.0000E+00  0.4400E+02
     -0.206  0.1684E+02  0.4523E+02
     -0.024  0.1523E+02  0.4817E+02
      0.159  0.7724E+01  0.5122E+02
      0.341  0.6667E+01  0.5220E+02
      0.523  0.1518E+02  0.5385E+02
      0.705  0.2202E+01  0.5592E+02
      0.887  0.1307E+02  0.5711E+02
      1.070  0.3374E+01  0.5984E+02
      1.252  0.1293E+02  0.6262E+02
      1.434  0.4391E+01  0.6412E+02
      1.616  0.1563E+02  0.6655E+02
      1.798  0.1889E+02  0.6948E+02
      1.981  0.1604E+02  0.7232E+02
      2.163  0.1124E+02  0.7542E+02
      2.345  0.0000E+00  0.7600E+02
      2.527  0.0000E+00  0.7600E+02
      2.709  0.0000E+00  0.7600E+02
      2.892  0.0000E+00  0.7600E+02
      3.074  0.0000E+00  0.7600E+02
      3.256  0.0000E+00  0.7600E+02
      3.438  0.0000E+00  0.7600E+02
      3.620  0.0000E+00  0.7600E+02
      3.803  0.0000E+00  0.7600E+02
      3.985  0.0000E+00  0.7600E+02
      4.167  0.0000E+00  0.7600E+02
      4.349  0.0000E+00  0.7600E+02
      4.531  0.0000E+00  0.7600E+02
      4.714  0.0000E+00  0.7600E+02
      4.896  0.0000E+00  0.7600E+02
      5.078  0.2578E+01  0.7625E+02
      5.260  0.3019E+01  0.7677E+02
      5.442  0.4935E+01  0.7778E+02
      5.625  0.6317E+01  0.7874E+02
      5.807  0.3101E+01  0.7951E+02
      5.989  0.1746E+01  0.7995E+02
      6.171  0.1378E+01  0.8014E+02
      6.353  0.1545E+02  0.8073E+02
      6.536  0.9438E+01  0.8370E+02
      6.718  0.1048E+02  0.8473E+02
      6.900  0.9298E+01  0.8742E+02
      7.082  0.1491E+02  0.8949E+02
      7.264  0.3506E+01  0.9189E+02
      7.447  0.0000E+00  0.9200E+02
      7.629  0.0000E+00  0.9200E+02
      7.811  0.0000E+00  0.9200E+02
      7.993  0.1229E+01  0.9203E+02
      8.175  0.9360E+01  0.9349E+02
      8.358  0.0000E+00  0.9400E+02
      8.540  0.7815E+01  0.9454E+02
      8.722  0.2595E+01  0.9591E+02
      8.904  0.0000E+00  0.9600E+02
      9.086  0.0000E+00  0.9600E+02
      9.269  0.0000E+00  0.9600E+02
      9.451  0.0000E+00  0.9600E+02
      9.633  0.0000E+00  0.9600E+02
      9.815  0.0000E+00  0.9600E+02
      9.997  0.0000E+00  0.9600E+02
     10.180  0.0000E+00  0.9600E+02
     10.362  0.0000E+00  0.9600E+02
     10.544  0.0000E+00  0.9600E+02
     10.726  0.0000E+00  0.9600E+02
     10.908  0.0000E+00  0.9600E+02
     11.090  0.0000E+00  0.9600E+02
     11.273  0.0000E+00  0.9600E+02
