       N       E                     dE             d eps       ncg     rms          rms(c)
DAV:   1     0.497209088743E+03    0.49721E+03   -0.28558E+04   776   0.130E+03
DAV:   2    -0.124775337504E+02   -0.50969E+03   -0.48605E+03   928   0.310E+02
DAV:   3    -0.722757000897E+02   -0.59798E+02   -0.59422E+02  1072   0.960E+01
DAV:   4    -0.791421556316E+02   -0.68665E+01   -0.68460E+01  1416   0.307E+01
DAV:   5    -0.799550873442E+02   -0.81293E+00   -0.81278E+00  1112   0.716E+00    0.217E+01
RMM:   6    -0.775902917046E+02    0.23648E+01   -0.71443E+00   892   0.614E+00    0.147E+01
RMM:   7    -0.771710865953E+02    0.41921E+00   -0.20454E+00   980   0.372E+00    0.509E+00
RMM:   8    -0.771056461155E+02    0.65440E-01   -0.24004E-01  1026   0.146E+00    0.486E-01
RMM:   9    -0.771002610796E+02    0.53850E-02   -0.25840E-02  1146   0.479E-01    0.279E-01
RMM:  10    -0.771008071696E+02   -0.54609E-03   -0.69087E-03  1221   0.201E-01    0.119E-01
RMM:  11    -0.771009550818E+02   -0.14791E-03   -0.18068E-03  1211   0.103E-01    0.207E-02
RMM:  12    -0.771010172314E+02   -0.62150E-04   -0.75215E-04  1073   0.599E-02    0.113E-02
RMM:  13    -0.771010273062E+02   -0.10075E-04   -0.15200E-04   778   0.384E-02
   1 F= -.77101027E+02 E0= -.77101027E+02  d E =0.000000E+00
