<?xml version="1.0" encoding="ISO-8859-1"?>
<modeling>
 <generator>
  <i name="program" type="string">vasp </i>
  <i name="version" type="string">5.4.4.18Apr17-6-g9f103f2a35  </i>
  <i name="subversion" type="string">(build Feb 28 2020 14:15:47) complex            parallel </i>
  <i name="platform" type="string">LinuxIFC </i>
  <i name="date" type="string">2022 08 06 </i>
  <i name="time" type="string">22:03:12 </i>
 </generator>
 <incar>
  <i type="int" name="ISTART">     0</i>
  <i type="string" name="PREC">accurate</i>
  <i type="string" name="ALGO"> FAST</i>
  <i type="int" name="ISPIN">     1</i>
  <i type="int" name="ICHARG">     2</i>
  <i type="int" name="INIWAV">     1</i>
  <i type="int" name="NELM">   100</i>
  <i type="int" name="IBRION">     2</i>
  <i name="EDIFF">      0.00002000</i>
  <i name="EDIFFG">      0.00020000</i>
  <i type="int" name="NSW">     0</i>
  <i type="int" name="ISIF">     7</i>
  <i name="ENCUT">    420.00000000</i>
  <i type="string" name="LREAL"> AUTO</i>
  <i type="int" name="ISMEAR">    -5</i>
  <i type="logical" name="LWAVE"> F  </i>
  <i type="logical" name="LCHARG"> F  </i>
  <v type="int" name="KPOINT_BSE">    -1     0     0     0</v>
  <i type="int" name="NELM">   100</i>
 </incar>
 <structure name="primitive_cell" >
  <crystal>
   <varray name="basis" >
    <v>       7.58022417       0.00000000       0.00000000 </v>
    <v>       0.00000000       6.33347261       0.00000000 </v>
    <v>       0.00000000       0.00000000       6.01079077 </v>
   </varray>
   <i name="volume">    288.57290863 </i>
   <varray name="rec_basis" >
    <v>       0.13192222       0.00000000       0.00000000 </v>
    <v>       0.00000000       0.15789126       0.00000000 </v>
    <v>       0.00000000       0.00000000       0.16636746 </v>
   </varray>
  </crystal>
  <varray name="positions" >
   <v>       0.00000000       0.31941529       0.30043929 </v>
   <v>       0.00000000      -0.38921740       0.15834255 </v>
   <v>      -0.22019414       0.16019156       0.20344538 </v>
   <v>       0.22019414       0.16019156       0.20344538 </v>
   <v>       0.00000000       0.34009032      -0.36109846 </v>
   <v>       0.00000000      -0.34267062      -0.21258024 </v>
   <v>      -0.24403165      -0.18672616       0.30120375 </v>
   <v>       0.24403165      -0.18672616       0.30120375 </v>
   <v>      -0.25596835       0.18672616      -0.19879625 </v>
   <v>       0.25596835       0.18672616      -0.19879625 </v>
   <v>       0.50000000       0.34267062       0.28741976 </v>
   <v>       0.50000000       0.38921740      -0.34165745 </v>
   <v>       0.27980586      -0.16019156      -0.29655462 </v>
   <v>      -0.27980586      -0.16019156      -0.29655462 </v>
   <v>       0.50000000      -0.34009032       0.13890154 </v>
   <v>       0.50000000      -0.31941529      -0.19956071 </v>
  </varray>
 </structure>
 <varray name="primitive_index" >
  <v type="int" >        1 </v>
  <v type="int" >        7 </v>
  <v type="int" >        6 </v>
  <v type="int" >        3 </v>
  <v type="int" >        9 </v>
  <v type="int" >       11 </v>
  <v type="int" >       15 </v>
  <v type="int" >       14 </v>
  <v type="int" >       16 </v>
  <v type="int" >       13 </v>
  <v type="int" >       12 </v>
  <v type="int" >        8 </v>
  <v type="int" >        4 </v>
  <v type="int" >        5 </v>
  <v type="int" >       10 </v>
  <v type="int" >        2 </v>
 </varray>
 <kpoints>
  <generation param="Monkhorst-Pack">
   <v type="int" name="divisions">       3        3        3 </v>
   <v name="usershift">      0.00000000       0.00000000       0.00000000 </v>
   <v name="genvec1">      0.33333333       0.00000000       0.00000000 </v>
   <v name="genvec2">      0.00000000       0.33333333       0.00000000 </v>
   <v name="genvec3">      0.00000000       0.00000000       0.33333333 </v>
   <v name="shift">      0.00000000       0.00000000       0.00000000 </v>
  </generation>
  <varray name="kpointlist" >
   <v>       0.00000000       0.00000000       0.00000000 </v>
   <v>       0.33333333       0.00000000       0.00000000 </v>
   <v>       0.00000000       0.33333333       0.00000000 </v>
   <v>       0.33333333       0.33333333       0.00000000 </v>
   <v>       0.00000000       0.00000000       0.33333333 </v>
   <v>       0.33333333       0.00000000       0.33333333 </v>
   <v>       0.00000000       0.33333333       0.33333333 </v>
   <v>       0.33333333       0.33333333       0.33333333 </v>
  </varray>
  <varray name="weights" >
   <v>       0.03703704 </v>
   <v>       0.07407407 </v>
   <v>       0.07407407 </v>
   <v>       0.14814815 </v>
   <v>       0.07407407 </v>
   <v>       0.14814815 </v>
   <v>       0.14814815 </v>
   <v>       0.29629630 </v>
  </varray>
  <varray name="tetrahedronlist"  type="int" >
   <v type="int" >        2        1        2        4        5 </v>
   <v type="int" >        2        1        3        4        5 </v>
   <v type="int" >        2        3        4        5        7 </v>
   <v type="int" >        2        2        4        5        6 </v>
   <v type="int" >        2        4        5        6        8 </v>
   <v type="int" >        2        4        5        7        8 </v>
   <v type="int" >        2        2        2        4        6 </v>
   <v type="int" >        2        2        4        4        6 </v>
   <v type="int" >        2        4        4        6        8 </v>
   <v type="int" >        2        2        4        6        6 </v>
   <v type="int" >        2        4        6        6        8 </v>
   <v type="int" >        2        4        6        8        8 </v>
   <v type="int" >        2        1        2        3        6 </v>
   <v type="int" >        2        2        3        4        6 </v>
   <v type="int" >        2        3        4        6        8 </v>
   <v type="int" >        2        1        3        5        6 </v>
   <v type="int" >        2        3        5        6        7 </v>
   <v type="int" >        2        3        6        7        8 </v>
   <v type="int" >        2        3        4        4        7 </v>
   <v type="int" >        2        3        3        4        7 </v>
   <v type="int" >        2        3        4        7        7 </v>
   <v type="int" >        2        4        4        7        8 </v>
   <v type="int" >        2        4        7        8        8 </v>
   <v type="int" >        2        4        7        7        8 </v>
   <v type="int" >        4        4        4        4        8 </v>
   <v type="int" >        4        4        4        8        8 </v>
   <v type="int" >        4        4        8        8        8 </v>
   <v type="int" >        2        3        3        4        8 </v>
   <v type="int" >        2        3        4        4        8 </v>
   <v type="int" >        2        3        4        8        8 </v>
   <v type="int" >        2        3        3        7        8 </v>
   <v type="int" >        2        3        7        7        8 </v>
   <v type="int" >        2        3        7        8        8 </v>
   <v type="int" >        2        2        3        4        7 </v>
   <v type="int" >        2        1        2        3        7 </v>
   <v type="int" >        2        1        2        5        7 </v>
   <v type="int" >        2        2        4        7        8 </v>
   <v type="int" >        2        2        6        7        8 </v>
   <v type="int" >        2        2        5        6        7 </v>
   <v type="int" >        2        2        4        4        8 </v>
   <v type="int" >        2        2        2        4        8 </v>
   <v type="int" >        2        2        2        6        8 </v>
   <v type="int" >        2        2        4        8        8 </v>
   <v type="int" >        2        2        6        8        8 </v>
   <v type="int" >        2        2        6        6        8 </v>
   <v type="int" >        2        1        3        4        8 </v>
   <v type="int" >        2        1        2        4        8 </v>
   <v type="int" >        2        1        2        6        8 </v>
   <v type="int" >        2        1        3        7        8 </v>
   <v type="int" >        2        1        5        7        8 </v>
   <v type="int" >        2        1        5        6        8 </v>
   <v type="int" >        2        5        5        6        8 </v>
   <v type="int" >        2        5        5        7        8 </v>
   <v type="int" >        2        5        7        7        8 </v>
   <v type="int" >        2        5        6        6        8 </v>
   <v type="int" >        2        5        6        8        8 </v>
   <v type="int" >        2        5        7        8        8 </v>
   <v type="int" >        4        6        6        6        8 </v>
   <v type="int" >        4        6        6        8        8 </v>
   <v type="int" >        4        6        8        8        8 </v>
   <v type="int" >        2        5        6        6        7 </v>
   <v type="int" >        2        6        6        7        8 </v>
   <v type="int" >        2        6        7        8        8 </v>
   <v type="int" >        2        5        5        6        7 </v>
   <v type="int" >        2        5        6        7        7 </v>
   <v type="int" >        2        6        7        7        8 </v>
   <v type="int" >        4        7        7        8        8 </v>
   <v type="int" >        4        7        7        7        8 </v>
   <v type="int" >        4        7        8        8        8 </v>
   <v type="int" >        6        8        8        8        8 </v>
  </varray>
  <i name="volumeweight">      0.00617284 </i>
 </kpoints>
 <parameters>
  <separator name="general" >
   <i type="string" name="SYSTEM">unknown system</i>
   <i type="logical" name="LCOMPAT"> F  </i>
  </separator>
  <separator name="electronic" >
   <i type="string" name="PREC">accura</i>
   <i name="ENMAX">    420.00000000</i>
   <i name="ENAUG">    628.94500000</i>
   <i name="EDIFF">      0.00002000</i>
   <i type="int" name="IALGO">    68</i>
   <i type="int" name="IWAVPR">    10</i>
   <i type="int" name="NBANDS">    48</i>
   <i name="NELECT">     76.00000000</i>
   <i type="int" name="TURBO">     0</i>
   <i type="int" name="IRESTART">     0</i>
   <i type="int" name="NREBOOT">     0</i>
   <i type="int" name="NMIN">     0</i>
   <i name="EREF">      0.00000000</i>
   <separator name="electronic smearing" >
    <i type="int" name="ISMEAR">    -5</i>
    <i name="SIGMA">      0.20000000</i>
    <i name="KSPACING">      0.50000000</i>
    <i type="logical" name="KGAMMA"> T  </i>
   </separator>
   <separator name="electronic projectors" >
    <i type="logical" name="LREAL"> T  </i>
    <v name="ROPT">     -0.00025000     -0.00025000     -0.00025000</v>
    <i type="int" name="LMAXPAW">  -100</i>
    <i type="int" name="LMAXMIX">     2</i>
    <i type="logical" name="NLSPLINE"> F  </i>
   </separator>
   <separator name="electronic startup" >
    <i type="int" name="ISTART">     0</i>
    <i type="int" name="ICHARG">     2</i>
    <i type="int" name="INIWAV">     1</i>
   </separator>
   <separator name="electronic spin" >
    <i type="int" name="ISPIN">     1</i>
    <i type="logical" name="LNONCOLLINEAR"> F  </i>
    <v name="MAGMOM">      1.00000000      1.00000000      1.00000000      1.00000000      1.00000000      1.00000000      1.00000000      1.00000000      1.00000000      1.00000000      1.00000000      1.00000000      1.00000000      1.00000000      1.00000000      1.00000000</v>
    <i name="NUPDOWN">     -1.00000000</i>
    <i type="logical" name="LSORBIT"> F  </i>
    <v name="SAXIS">      0.00000000      0.00000000      1.00000000</v>
    <i type="logical" name="LSPIRAL"> F  </i>
    <v name="QSPIRAL">      0.00000000      0.00000000      0.00000000</v>
    <i type="logical" name="LZEROZ"> F  </i>
   </separator>
   <separator name="electronic exchange-correlation" >
    <i type="logical" name="LASPH"> F  </i>
    <i type="logical" name="LMETAGGA"> F  </i>
   </separator>
   <separator name="electronic convergence" >
    <i type="int" name="NELM">   100</i>
    <i type="int" name="NELMDL">    -5</i>
    <i type="int" name="NELMIN">     2</i>
    <i name="ENINI">    420.00000000</i>
    <separator name="electronic convergence detail" >
     <i type="logical" name="LDIAG"> T  </i>
     <i type="logical" name="LSUBROT"> F  </i>
     <i name="WEIMIN">      0.00000000</i>
     <i name="EBREAK">      0.00000010</i>
     <i name="DEPER">      0.30000000</i>
     <i type="int" name="NRMM">     4</i>
     <i name="TIME">      0.40000000</i>
    </separator>
   </separator>
   <separator name="electronic mixer" >
    <i name="AMIX">      0.40000000</i>
    <i name="BMIX">      1.00000000</i>
    <i name="AMIN">      0.10000000</i>
    <i name="AMIX_MAG">      1.60000000</i>
    <i name="BMIX_MAG">      1.00000000</i>
    <separator name="electronic mixer details" >
     <i type="int" name="IMIX">     4</i>
     <i type="logical" name="MIXFIRST"> F  </i>
     <i type="int" name="MAXMIX">   -45</i>
     <i name="WC">    100.00000000</i>
     <i type="int" name="INIMIX">     1</i>
     <i type="int" name="MIXPRE">     1</i>
     <i type="int" name="MREMOVE">     5</i>
    </separator>
   </separator>
   <separator name="electronic dipolcorrection" >
    <i type="logical" name="LDIPOL"> F  </i>
    <i type="logical" name="LMONO"> F  </i>
    <i type="int" name="IDIPOL">     0</i>
    <i name="EPSILON">      1.00000000</i>
    <v name="DIPOL">   -100.00000000   -100.00000000   -100.00000000</v>
    <i name="EFIELD">      0.00000000</i>
   </separator>
  </separator>
  <separator name="grids" >
   <i type="int" name="NGX">    54</i>
   <i type="int" name="NGY">    42</i>
   <i type="int" name="NGZ">    40</i>
   <i type="int" name="NGXF">   108</i>
   <i type="int" name="NGYF">    84</i>
   <i type="int" name="NGZF">    80</i>
   <i type="logical" name="ADDGRID"> F  </i>
  </separator>
  <separator name="ionic" >
   <i type="int" name="NSW">     0</i>
   <i type="int" name="IBRION">    -1</i>
   <i type="int" name="MDALGO">     0</i>
   <i type="int" name="ISIF">     7</i>
   <i name="PSTRESS">      0.00000000</i>
   <i name="EDIFFG">      0.00020000</i>
   <i type="int" name="NFREE">     1</i>
   <i name="POTIM">      0.50000000</i>
   <i name="SMASS">     -3.00000000</i>
   <i name="SCALEE">      1.00000000</i>
  </separator>
  <separator name="ionic md" >
   <i name="TEBEG">      0.00010000</i>
   <i name="TEEND">      0.00010000</i>
   <i type="int" name="NBLOCK">     1</i>
   <i type="int" name="KBLOCK">     1</i>
   <i type="int" name="NPACO">   256</i>
   <i name="APACO">     16.00000000</i>
  </separator>
  <separator name="symmetry" >
   <i type="int" name="ISYM">     2</i>
   <i name="SYMPREC">      0.00001000</i>
  </separator>
  <separator name="dos" >
   <i type="int" name="LORBIT">     0</i>
   <v name="RWIGS">     -1.00000000     -1.00000000     -1.00000000</v>
   <i type="int" name="NEDOS">   301</i>
   <i name="EMIN">     10.00000000</i>
   <i name="EMAX">    -10.00000000</i>
   <i name="EFERMI">      0.00000000</i>
  </separator>
  <separator name="writing" >
   <i type="int" name="NWRITE">     2</i>
   <i type="logical" name="LWAVE"> F  </i>
   <i type="logical" name="LDOWNSAMPLE"> F  </i>
   <i type="logical" name="LCHARG"> F  </i>
   <i type="logical" name="LPARD"> F  </i>
   <i type="logical" name="LVTOT"> F  </i>
   <i type="logical" name="LVHAR"> F  </i>
   <i type="logical" name="LELF"> F  </i>
   <i type="logical" name="LOPTICS"> F  </i>
   <v name="STM">      0.00000000      0.00000000      0.00000000      0.00000000      0.00000000      0.00000000      0.00000000</v>
  </separator>
  <separator name="performance" >
   <i type="int" name="NPAR">     4</i>
   <i type="int" name="NSIM">     4</i>
   <i type="int" name="NBLK">    -1</i>
   <i type="logical" name="LPLANE"> T  </i>
   <i type="logical" name="LSCALAPACK"> T  </i>
   <i type="logical" name="LSCAAWARE"> F  </i>
   <i type="logical" name="LSCALU"> F  </i>
   <i type="logical" name="LASYNC"> F  </i>
   <i type="logical" name="LORBITALREAL"> F  </i>
  </separator>
  <separator name="miscellaneous" >
   <i type="int" name="IDIOT">     3</i>
   <i type="int" name="ISPECIAL">     0</i>
   <i type="logical" name="LMUSIC"> F  </i>
   <v name="POMASS">     30.97400000     32.06600000      7.01000000</v>
   <v name="DARWINR">      0.00000000      0.00000000      0.00000000</v>
   <v name="DARWINV">      1.00000000      1.00000000      1.00000000</v>
   <i type="logical" name="LCORR"> T  </i>
  </separator>
  <i type="logical" name="GGA_COMPAT"> T  </i>
  <i type="logical" name="LBERRY"> F  </i>
  <i type="int" name="ICORELEVEL">     0</i>
  <i type="logical" name="LDAU"> F  </i>
  <i type="int" name="I_CONSTRAINED_M">     0</i>
  <separator name="electronic exchange-correlation" >
   <i type="string" name="GGA">--</i>
   <i type="int" name="VOSKOWN">     0</i>
   <i type="logical" name="LHFCALC"> F  </i>
   <i type="string" name="PRECFOCK"></i>
   <i type="logical" name="LSYMGRAD"> F  </i>
   <i type="logical" name="LHFONE"> F  </i>
   <i type="logical" name="LRHFCALC"> F  </i>
   <i type="logical" name="LTHOMAS"> F  </i>
   <i type="logical" name="LMODELHF"> F  </i>
   <i name="ENCUT4O">     -1.00000000</i>
   <i type="int" name="EXXOEP">     0</i>
   <i type="int" name="FOURORBIT">     0</i>
   <i name="AEXX">      0.00000000</i>
   <i name="HFALPHA">      0.00000000</i>
   <i name="MCALPHA">      0.00000000</i>
   <i name="ALDAX">      1.00000000</i>
   <i name="AGGAX">      1.00000000</i>
   <i name="ALDAC">      1.00000000</i>
   <i name="AGGAC">      1.00000000</i>
   <i type="int" name="NKREDX">     1</i>
   <i type="int" name="NKREDY">     1</i>
   <i type="int" name="NKREDZ">     1</i>
   <i type="logical" name="SHIFTRED"> F  </i>
   <i type="logical" name="ODDONLY"> F  </i>
   <i type="logical" name="EVENONLY"> F  </i>
   <i type="int" name="LMAXFOCK">     0</i>
   <i type="int" name="NMAXFOCKAE">     0</i>
   <i type="logical" name="LFOCKAEDFT"> F  </i>
   <i name="HFSCREEN">      0.00000000</i>
   <i name="HFSCREENC">      0.00000000</i>
   <i type="int" name="NBANDSGWLOW">     0</i>
  </separator>
  <separator name="vdW DFT" >
   <i type="logical" name="LUSE_VDW"> F  </i>
   <i name="Zab_VDW">     -0.84910000</i>
   <i name="PARAM1">      0.12340000</i>
   <i name="PARAM2">      1.00000000</i>
   <i name="PARAM3">      0.00000000</i>
  </separator>
  <separator name="model GW" >
   <i type="int" name="MODEL_GW">     0</i>
   <i name="MODEL_EPS0">     10.82148407</i>
   <i name="MODEL_ALPHA">      1.00000000</i>
  </separator>
  <separator name="linear response parameters" >
   <i type="logical" name="LEPSILON"> F  </i>
   <i type="logical" name="LRPA"> F  </i>
   <i type="logical" name="LNABLA"> F  </i>
   <i type="logical" name="LVEL"> F  </i>
   <i type="int" name="KINTER">     0</i>
   <i name="CSHIFT">      0.10000000</i>
   <i name="OMEGAMAX">     -1.00000000</i>
   <i name="DEG_THRESHOLD">      0.00200000</i>
   <i name="RTIME">     -0.10000000</i>
   <i name="WPLASMAI">      0.00000000</i>
   <v name="DFIELD">      0.00000000      0.00000000      0.00000000</v>
   <v name="WPLASMA">      0.00000000      0.00000000      0.00000000      0.00000000      0.00000000      0.00000000      0.00000000      0.00000000      0.00000000</v>
  </separator>
  <separator name="orbital magnetization" >
   <i type="logical" name="NUCIND"> F  </i>
   <v name="MAGPOS">      0.00000000      0.00000000      0.00000000</v>
   <i type="logical" name="LNICSALL"> T  </i>
   <i type="logical" name="ORBITALMAG"> F  </i>
   <i type="logical" name="LMAGBLOCH"> F  </i>
   <i type="logical" name="LCHIMAG"> F  </i>
   <i type="logical" name="LGAUGE"> T  </i>
   <i type="int" name="MAGATOM">     0</i>
   <v name="MAGDIPOL">      0.00000000      0.00000000      0.00000000</v>
   <v name="AVECCONST">      0.00000000      0.00000000      0.00000000</v>
  </separator>
  <separator name="response functions" >
   <i type="logical" name="LADDER"> F  </i>
   <i type="logical" name="LRPAFORCE"> F  </i>
   <i type="logical" name="LFXC"> F  </i>
   <i type="logical" name="LHARTREE"> T  </i>
   <i type="int" name="IBSE">     0</i>
   <v type="int" name="KPOINT">    -1     0     0     0</v>
   <i type="logical" name="LTCTE"> F  </i>
   <i type="logical" name="LTETE"> F  </i>
   <i type="logical" name="LTRIPLET"> F  </i>
   <i type="logical" name="LFXCEPS"> F  </i>
   <i type="logical" name="LFXHEG"> F  </i>
   <i type="int" name="NATURALO">     2</i>
   <i type="logical" name="L2ORDER"> F  </i>
   <i type="logical" name="LMP2LT"> F  </i>
   <i type="logical" name="LUSEW"> F  </i>
   <i name="ENCUTGW">     -2.00000000</i>
   <i name="ENCUTGWSOFT">     -2.00000000</i>
   <i name="ENCUTLF">     -1.00000000</i>
   <i type="int" name="LMAXMP2">    -1</i>
   <i name="SCISSOR">      0.00000000</i>
   <i type="int" name="NOMEGA">     0</i>
   <i type="int" name="NOMEGAR">     0</i>
   <i type="int" name="NBANDSGW">    -1</i>
   <i type="int" name="NBANDSO">    -1</i>
   <i type="int" name="NBANDSV">    -1</i>
   <i type="int" name="NELM">   100</i>
   <i type="int" name="NELMHF">     1</i>
   <i type="int" name="DIM">     3</i>
   <i type="int" name="ANTIRES">     0</i>
   <i name="OMEGAMAX">    -30.00000000</i>
   <i name="OMEGAMIN">    -30.00000000</i>
   <i name="OMEGATL">   -200.00000000</i>
   <i type="int" name="OMEGAGRID">   140</i>
   <i name="CSHIFT">     -0.10000000</i>
   <i type="logical" name="SELFENERGY"> F  </i>
   <i type="logical" name="LSPECTRAL"> F  </i>
   <i type="logical" name="LSPECTRALGW"> F  </i>
   <i type="logical" name="LSINGLES"> F  </i>
   <i type="logical" name="LFERMIGW"> F  </i>
   <i type="logical" name="ODDONLYGW"> F  </i>
   <i type="logical" name="EVENONLYGW"> F  </i>
   <i type="int" name="NKREDLFX">     1</i>
   <i type="int" name="NKREDLFY">     1</i>
   <i type="int" name="NKREDLFZ">     1</i>
   <i type="int" name="MAXMEM">  2800</i>
   <i type="int" name="TELESCOPE">     0</i>
   <i type="int" name="TAUPAR">     1</i>
   <i type="int" name="OMEGAPAR">    -1</i>
   <i name="LAMBDA">      1.00000000</i>
  </separator>
  <separator name="External order field" >
   <i name="OFIELD_KAPPA">      0.00000000</i>
   <v name="OFIELD_K">      0.00000000      0.00000000      0.00000000</v>
   <i name="OFIELD_Q6_NEAR">      0.00000000</i>
   <i name="OFIELD_Q6_FAR">      0.00000000</i>
   <i name="OFIELD_A">      0.00000000</i>
  </separator>
 </parameters>
 <atominfo>
  <atoms>      16 </atoms>
  <types>       3 </types>
  <array name="atoms" >
   <dimension dim="1">ion</dimension>
   <field type="string">element</field>
   <field type="int">atomtype</field>
   <set>
    <rc><c>P </c><c>   1</c></rc>
    <rc><c>P </c><c>   1</c></rc>
    <rc><c>S </c><c>   2</c></rc>
    <rc><c>S </c><c>   2</c></rc>
    <rc><c>S </c><c>   2</c></rc>
    <rc><c>S </c><c>   2</c></rc>
    <rc><c>S </c><c>   2</c></rc>
    <rc><c>S </c><c>   2</c></rc>
    <rc><c>S </c><c>   2</c></rc>
    <rc><c>S </c><c>   2</c></rc>
    <rc><c>Li</c><c>   3</c></rc>
    <rc><c>Li</c><c>   3</c></rc>
    <rc><c>Li</c><c>   3</c></rc>
    <rc><c>Li</c><c>   3</c></rc>
    <rc><c>Li</c><c>   3</c></rc>
    <rc><c>Li</c><c>   3</c></rc>
   </set>
  </array>
  <array name="atomtypes" >
   <dimension dim="1">type</dimension>
   <field type="int">atomspertype</field>
   <field type="string">element</field>
   <field>mass</field>
   <field>valence</field>
   <field type="string">pseudopotential</field>
   <set>
    <rc><c>   2</c><c>P </c><c>     30.97400000</c><c>      5.00000000</c><c>  PAW P 26Mar2009                       </c></rc>
    <rc><c>   8</c><c>S </c><c>     32.06600000</c><c>      6.00000000</c><c>  PAW S 27Mar2009                       </c></rc>
    <rc><c>   6</c><c>Li</c><c>      7.01000000</c><c>      3.00000000</c><c>  PAW Li_sv 10Sep2004                   </c></rc>
   </set>
  </array>
 </atominfo>
 <structure name="initialpos" >
  <crystal>
   <varray name="basis" >
    <v>       7.58022417       0.00000000       0.00000000 </v>
    <v>       0.00000000       6.33347261       0.00000000 </v>
    <v>       0.00000000       0.00000000       6.01079077 </v>
   </varray>
   <i name="volume">    288.57290863 </i>
   <varray name="rec_basis" >
    <v>       0.13192222       0.00000000       0.00000000 </v>
    <v>       0.00000000       0.15789126       0.00000000 </v>
    <v>       0.00000000       0.00000000       0.16636746 </v>
   </varray>
  </crystal>
  <varray name="positions" >
   <v>       0.00000000       0.31941529       0.30043929 </v>
   <v>       0.50000000       0.68058471       0.80043929 </v>
   <v>       0.22019414       0.16019156       0.20344538 </v>
   <v>       0.27980586       0.83980844       0.70344538 </v>
   <v>       0.72019414       0.83980844       0.70344538 </v>
   <v>       0.77980586       0.16019156       0.20344538 </v>
   <v>       0.00000000       0.61078260       0.15834255 </v>
   <v>       0.50000000       0.38921740       0.65834255 </v>
   <v>       0.00000000       0.34009032       0.63890154 </v>
   <v>       0.50000000       0.65990968       0.13890154 </v>
   <v>       0.00000000       0.65732938       0.78741976 </v>
   <v>       0.50000000       0.34267062       0.28741976 </v>
   <v>       0.25596835       0.18672616       0.80120375 </v>
   <v>       0.24403165       0.81327384       0.30120375 </v>
   <v>       0.75596835       0.81327384       0.30120375 </v>
   <v>       0.74403165       0.18672616       0.80120375 </v>
  </varray>
 </structure>
 <calculation>
  <scstep>
   <time name="dav">    0.20    0.20</time>
   <time name="total">    0.21    0.22</time>
   <energy>
    <i name="alphaZ">     68.38118764 </i>
    <i name="ewald">  -2727.05682552 </i>
    <i name="hartreedc">   -621.17872509 </i>
    <i name="XCdc">    181.81366363 </i>
    <i name="pawpsdc">   2494.22442938 </i>
    <i name="pawaedc">  -2541.12215007 </i>
    <i name="eentropy">      0.00000000 </i>
    <i name="bandstr">   -126.94031500 </i>
    <i name="atom">   3769.08782378 </i>
    <i name="e_fr_energy">    497.20908874 </i>
    <i name="e_wo_entrp">    497.20908874 </i>
    <i name="e_0_energy">    497.20908874 </i>
   </energy>
  </scstep>
  <scstep>
   <time name="dav">    0.20    0.20</time>
   <time name="total">    0.20    0.20</time>
   <energy>
    <i name="e_fr_energy">    -12.47753375 </i>
    <i name="e_wo_entrp">    -12.47753375 </i>
    <i name="e_0_energy">    -12.47753375 </i>
   </energy>
  </scstep>
  <scstep>
   <time name="dav">    0.22    0.22</time>
   <time name="total">    0.22    0.22</time>
   <energy>
    <i name="e_fr_energy">    -72.27570009 </i>
    <i name="e_wo_entrp">    -72.27570009 </i>
    <i name="e_0_energy">    -72.27570009 </i>
   </energy>
  </scstep>
  <scstep>
   <time name="dav">    0.28    0.28</time>
   <time name="total">    0.28    0.28</time>
   <energy>
    <i name="e_fr_energy">    -79.14215563 </i>
    <i name="e_wo_entrp">    -79.14215563 </i>
    <i name="e_0_energy">    -79.14215563 </i>
   </energy>
  </scstep>
  <scstep>
   <time name="dav">    0.23    0.23</time>
   <time name="total">    0.25    0.25</time>
   <energy>
    <i name="e_fr_energy">    -79.95508734 </i>
    <i name="e_wo_entrp">    -79.95508734 </i>
    <i name="e_0_energy">    -79.95508734 </i>
   </energy>
  </scstep>
  <scstep>
   <time name="diag">    0.05    0.05</time>
   <time name="diis">    0.08    0.08</time>
   <time name="orth">    0.01    0.01</time>
   <time name="total">    0.16    0.16</time>
   <energy>
    <i name="e_fr_energy">    -77.59029170 </i>
    <i name="e_wo_entrp">    -77.59029170 </i>
    <i name="e_0_energy">    -77.59029170 </i>
   </energy>
  </scstep>
  <scstep>
   <time name="diag">    0.05    0.05</time>
   <time name="diis">    0.09    0.09</time>
   <time name="orth">    0.01    0.01</time>
   <time name="total">    0.17    0.17</time>
   <energy>
    <i name="e_fr_energy">    -77.17108660 </i>
    <i name="e_wo_entrp">    -77.17108660 </i>
    <i name="e_0_energy">    -77.17108660 </i>
   </energy>
  </scstep>
  <scstep>
   <time name="diag">    0.05    0.05</time>
   <time name="diis">    0.09    0.09</time>
   <time name="orth">    0.01    0.01</time>
   <time name="total">    0.17    0.17</time>
   <energy>
    <i name="e_fr_energy">    -77.10564612 </i>
    <i name="e_wo_entrp">    -77.10564612 </i>
    <i name="e_0_energy">    -77.10564612 </i>
   </energy>
  </scstep>
  <scstep>
   <time name="diag">    0.05    0.05</time>
   <time name="diis">    0.11    0.11</time>
   <time name="orth">    0.01    0.01</time>
   <time name="total">    0.18    0.18</time>
   <energy>
    <i name="e_fr_energy">    -77.10026108 </i>
    <i name="e_wo_entrp">    -77.10026108 </i>
    <i name="e_0_energy">    -77.10026108 </i>
   </energy>
  </scstep>
  <scstep>
   <time name="diag">    0.05    0.05</time>
   <time name="diis">    0.11    0.11</time>
   <time name="orth">    0.01    0.01</time>
   <time name="total">    0.19    0.19</time>
   <energy>
    <i name="e_fr_energy">    -77.10080717 </i>
    <i name="e_wo_entrp">    -77.10080717 </i>
    <i name="e_0_energy">    -77.10080717 </i>
   </energy>
  </scstep>
  <scstep>
   <time name="diag">    0.05    0.05</time>
   <time name="diis">    0.11    0.11</time>
   <time name="orth">    0.01    0.01</time>
   <time name="total">    0.19    0.19</time>
   <energy>
    <i name="e_fr_energy">    -77.10095508 </i>
    <i name="e_wo_entrp">    -77.10095508 </i>
    <i name="e_0_energy">    -77.10095508 </i>
   </energy>
  </scstep>
  <scstep>
   <time name="diag">    0.05    0.05</time>
   <time name="diis">    0.10    0.10</time>
   <time name="orth">    0.01    0.01</time>
   <time name="total">    0.18    0.18</time>
   <energy>
    <i name="e_fr_energy">    -77.10101723 </i>
    <i name="e_wo_entrp">    -77.10101723 </i>
    <i name="e_0_energy">    -77.10101723 </i>
   </energy>
  </scstep>
  <scstep>
   <time name="diag">    0.05    0.05</time>
   <time name="diis">    0.07    0.07</time>
   <time name="orth">    0.01    0.01</time>
   <time name="total">    0.14    0.14</time>
   <energy>
    <i name="alphaZ">     68.38118764 </i>
    <i name="ewald">  -2727.05682552 </i>
    <i name="hartreedc">   -653.23036651 </i>
    <i name="XCdc">    185.58243446 </i>
    <i name="pawpsdc">   7349.38465910 </i>
    <i name="pawaedc">  -7399.35063721 </i>
    <i name="eentropy">      0.00000000 </i>
    <i name="bandstr">   -669.89930305 </i>
    <i name="atom">   3769.08782378 </i>
    <i name="e_fr_energy">    -77.10102731 </i>
    <i name="e_wo_entrp">    -77.10102731 </i>
    <i name="e_0_energy">    -77.10102731 </i>
   </energy>
  </scstep>
  <structure>
   <crystal>
    <varray name="basis" >
     <v>       7.58022417       0.00000000       0.00000000 </v>
     <v>       0.00000000       6.33347261       0.00000000 </v>
     <v>       0.00000000       0.00000000       6.01079077 </v>
    </varray>
    <i name="volume">    288.57290863 </i>
    <varray name="rec_basis" >
     <v>       0.13192222       0.00000000       0.00000000 </v>
     <v>       0.00000000       0.15789126       0.00000000 </v>
     <v>       0.00000000       0.00000000       0.16636746 </v>
    </varray>
   </crystal>
   <varray name="positions" >
    <v>       0.00000000       0.31941529       0.30043929 </v>
    <v>       0.50000000       0.68058471       0.80043929 </v>
    <v>       0.22019414       0.16019156       0.20344538 </v>
    <v>       0.27980586       0.83980844       0.70344538 </v>
    <v>       0.72019414       0.83980844       0.70344538 </v>
    <v>       0.77980586       0.16019156       0.20344538 </v>
    <v>       0.00000000       0.61078260       0.15834255 </v>
    <v>       0.50000000       0.38921740       0.65834255 </v>
    <v>       0.00000000       0.34009032       0.63890154 </v>
    <v>       0.50000000       0.65990968       0.13890154 </v>
    <v>       0.00000000       0.65732938       0.78741976 </v>
    <v>       0.50000000       0.34267062       0.28741976 </v>
    <v>       0.25596835       0.18672616       0.80120375 </v>
    <v>       0.24403165       0.81327384       0.30120375 </v>
    <v>       0.75596835       0.81327384       0.30120375 </v>
    <v>       0.74403165       0.18672616       0.80120375 </v>
   </varray>
  </structure>
  <varray name="forces" >
   <v>       0.00000000      -0.00588803      -0.01206375 </v>
   <v>       0.00000000       0.00588803      -0.01206375 </v>
   <v>       0.03663403       0.23818525      -0.32019430 </v>
   <v>      -0.03663403      -0.23818525      -0.32019430 </v>
   <v>       0.03663403      -0.23818525      -0.32019430 </v>
   <v>      -0.03663403       0.23818525      -0.32019430 </v>
   <v>       0.00000000       0.06798918       0.73419848 </v>
   <v>       0.00000000      -0.06798918       0.73419848 </v>
   <v>       0.00000000      -0.65665276      -0.08836203 </v>
   <v>       0.00000000       0.65665276      -0.08836203 </v>
   <v>       0.00000000       0.50183559      -0.20799799 </v>
   <v>       0.00000000      -0.50183559      -0.20799799 </v>
   <v>       0.01456556       0.33753384       0.10730695 </v>
   <v>      -0.01456556      -0.33753384       0.10730695 </v>
   <v>       0.01456556      -0.33753384       0.10730695 </v>
   <v>      -0.01456556       0.33753384       0.10730695 </v>
  </varray>
  <varray name="stress" >
   <v>     -15.01681520       0.00000000       0.00000000 </v>
   <v>       0.00000000      20.21187596       0.00000000 </v>
   <v>       0.00000000       0.00000000       1.49194191 </v>
  </varray>
  <energy>
   <i name="e_fr_energy">    -77.10102731 </i>
   <i name="e_wo_entrp">    -77.10102731 </i>
   <i name="e_0_energy">      0.00000000 </i>
  </energy>
  <time name="totalsc">    2.71    2.73</time>
  <eigenvalues>
   <array>
    <dimension dim="1">band</dimension>
    <dimension dim="2">kpoint</dimension>
    <dimension dim="3">spin</dimension>
    <field>eigene</field>
    <field>occ</field>
    <set>
     <set comment="spin 1">
      <set comment="kpoint 1">
       <r>  -40.9019    1.0000 </r>
       <r>  -40.9018    1.0000 </r>
       <r>  -40.8187    1.0000 </r>
       <r>  -40.8180    1.0000 </r>
       <r>  -40.8180    1.0000 </r>
       <r>  -40.8173    1.0000 </r>
       <r>  -12.6395    1.0000 </r>
       <r>  -12.4628    1.0000 </r>
       <r>   -9.5798    1.0000 </r>
       <r>   -9.5141    1.0000 </r>
       <r>   -9.4238    1.0000 </r>
       <r>   -9.4115    1.0000 </r>
       <r>   -9.3237    1.0000 </r>
       <r>   -9.3184    1.0000 </r>
       <r>   -5.6556    1.0000 </r>
       <r>   -5.0975    1.0000 </r>
       <r>   -2.6601    1.0000 </r>
       <r>   -2.6460    1.0000 </r>
       <r>   -2.4603    1.0000 </r>
       <r>   -2.2887    1.0000 </r>
       <r>   -2.1415    1.0000 </r>
       <r>   -2.0636    1.0000 </r>
       <r>   -0.1454    1.0000 </r>
       <r>   -0.0307    1.0000 </r>
       <r>    0.1162    1.0000 </r>
       <r>    0.2167    1.0000 </r>
       <r>    0.3167    1.0000 </r>
       <r>    0.5298    1.0000 </r>
       <r>    0.9156    1.0000 </r>
       <r>    1.1603    1.0000 </r>
       <r>    1.1789    1.0000 </r>
       <r>    1.3072    1.0000 </r>
       <r>    1.7725    1.0000 </r>
       <r>    1.7882    1.0000 </r>
       <r>    1.9198    1.0000 </r>
       <r>    1.9251    1.0000 </r>
       <r>    1.9860    1.0000 </r>
       <r>    2.2319    1.0000 </r>
       <r>    5.5044    0.0000 </r>
       <r>    5.6752    0.0000 </r>
       <r>    5.8288    0.0000 </r>
       <r>    6.3881    0.0000 </r>
       <r>    6.4372    0.0000 </r>
       <r>    7.0964    0.0000 </r>
       <r>    7.1748    0.0000 </r>
       <r>    7.2822    0.0000 </r>
       <r>    8.0056    0.0000 </r>
       <r>    8.6721    0.0000 </r>
      </set>
      <set comment="kpoint 2">
       <r>  -40.9018    1.0000 </r>
       <r>  -40.9018    1.0000 </r>
       <r>  -40.8185    1.0000 </r>
       <r>  -40.8182    1.0000 </r>
       <r>  -40.8178    1.0000 </r>
       <r>  -40.8175    1.0000 </r>
       <r>  -12.5966    1.0000 </r>
       <r>  -12.5082    1.0000 </r>
       <r>   -9.5399    1.0000 </r>
       <r>   -9.4709    1.0000 </r>
       <r>   -9.4148    1.0000 </r>
       <r>   -9.4101    1.0000 </r>
       <r>   -9.4004    1.0000 </r>
       <r>   -9.3562    1.0000 </r>
       <r>   -5.4790    1.0000 </r>
       <r>   -5.2005    1.0000 </r>
       <r>   -2.6707    1.0000 </r>
       <r>   -2.6156    1.0000 </r>
       <r>   -2.5274    1.0000 </r>
       <r>   -2.2275    1.0000 </r>
       <r>   -2.1603    1.0000 </r>
       <r>   -2.1386    1.0000 </r>
       <r>   -0.1138    1.0000 </r>
       <r>    0.0342    1.0000 </r>
       <r>    0.1239    1.0000 </r>
       <r>    0.3455    1.0000 </r>
       <r>    0.3816    1.0000 </r>
       <r>    0.5090    1.0000 </r>
       <r>    0.9606    1.0000 </r>
       <r>    1.1665    1.0000 </r>
       <r>    1.3031    1.0000 </r>
       <r>    1.3676    1.0000 </r>
       <r>    1.4708    1.0000 </r>
       <r>    1.5615    1.0000 </r>
       <r>    1.7621    1.0000 </r>
       <r>    1.8352    1.0000 </r>
       <r>    1.9312    1.0000 </r>
       <r>    2.0181    1.0000 </r>
       <r>    5.8737    0.0000 </r>
       <r>    5.9865    0.0000 </r>
       <r>    6.3455    0.0000 </r>
       <r>    6.4746    0.0000 </r>
       <r>    6.7023    0.0000 </r>
       <r>    6.8649    0.0000 </r>
       <r>    7.1125    0.0000 </r>
       <r>    7.1604    0.0000 </r>
       <r>    7.9348    0.0000 </r>
       <r>    8.6763    0.0000 </r>
      </set>
      <set comment="kpoint 3">
       <r>  -40.9018    1.0000 </r>
       <r>  -40.9017    1.0000 </r>
       <r>  -40.8187    1.0000 </r>
       <r>  -40.8180    1.0000 </r>
       <r>  -40.8180    1.0000 </r>
       <r>  -40.8172    1.0000 </r>
       <r>  -12.5918    1.0000 </r>
       <r>  -12.4856    1.0000 </r>
       <r>   -9.6190    1.0000 </r>
       <r>   -9.5564    1.0000 </r>
       <r>   -9.4421    1.0000 </r>
       <r>   -9.3968    1.0000 </r>
       <r>   -9.3493    1.0000 </r>
       <r>   -9.3265    1.0000 </r>
       <r>   -5.4484    1.0000 </r>
       <r>   -5.1563    1.0000 </r>
       <r>   -2.6809    1.0000 </r>
       <r>   -2.5890    1.0000 </r>
       <r>   -2.3587    1.0000 </r>
       <r>   -2.2830    1.0000 </r>
       <r>   -2.1556    1.0000 </r>
       <r>   -2.1100    1.0000 </r>
       <r>   -0.1352    1.0000 </r>
       <r>    0.0440    1.0000 </r>
       <r>    0.0705    1.0000 </r>
       <r>    0.2185    1.0000 </r>
       <r>    0.5784    1.0000 </r>
       <r>    0.5819    1.0000 </r>
       <r>    0.9476    1.0000 </r>
       <r>    0.9866    1.0000 </r>
       <r>    1.2902    1.0000 </r>
       <r>    1.4557    1.0000 </r>
       <r>    1.4711    1.0000 </r>
       <r>    1.5893    1.0000 </r>
       <r>    1.7446    1.0000 </r>
       <r>    1.8364    1.0000 </r>
       <r>    2.0152    1.0000 </r>
       <r>    2.2321    1.0000 </r>
       <r>    5.0258    0.0000 </r>
       <r>    5.8629    0.0000 </r>
       <r>    6.3412    0.0000 </r>
       <r>    6.4579    0.0000 </r>
       <r>    6.6529    0.0000 </r>
       <r>    6.8521    0.0000 </r>
       <r>    7.0157    0.0000 </r>
       <r>    7.0964    0.0000 </r>
       <r>    8.1120    0.0000 </r>
       <r>    8.5522    0.0000 </r>
      </set>
      <set comment="kpoint 4">
       <r>  -40.9018    1.0000 </r>
       <r>  -40.9017    1.0000 </r>
       <r>  -40.8185    1.0000 </r>
       <r>  -40.8182    1.0000 </r>
       <r>  -40.8178    1.0000 </r>
       <r>  -40.8174    1.0000 </r>
       <r>  -12.5642    1.0000 </r>
       <r>  -12.5110    1.0000 </r>
       <r>   -9.6373    1.0000 </r>
       <r>   -9.5941    1.0000 </r>
       <r>   -9.4342    1.0000 </r>
       <r>   -9.3718    1.0000 </r>
       <r>   -9.3484    1.0000 </r>
       <r>   -9.3216    1.0000 </r>
       <r>   -5.3378    1.0000 </r>
       <r>   -5.1919    1.0000 </r>
       <r>   -2.6317    1.0000 </r>
       <r>   -2.5566    1.0000 </r>
       <r>   -2.4205    1.0000 </r>
       <r>   -2.2697    1.0000 </r>
       <r>   -2.1792    1.0000 </r>
       <r>   -2.1507    1.0000 </r>
       <r>   -0.1578    1.0000 </r>
       <r>    0.0073    1.0000 </r>
       <r>    0.0999    1.0000 </r>
       <r>    0.2585    1.0000 </r>
       <r>    0.5546    1.0000 </r>
       <r>    0.7594    1.0000 </r>
       <r>    0.8710    1.0000 </r>
       <r>    0.9539    1.0000 </r>
       <r>    1.1969    1.0000 </r>
       <r>    1.3001    1.0000 </r>
       <r>    1.3799    1.0000 </r>
       <r>    1.4953    1.0000 </r>
       <r>    1.7772    1.0000 </r>
       <r>    1.9357    1.0000 </r>
       <r>    1.9739    1.0000 </r>
       <r>    2.0605    1.0000 </r>
       <r>    5.5489    0.0000 </r>
       <r>    6.0606    0.0000 </r>
       <r>    6.3635    0.0000 </r>
       <r>    6.4543    0.0000 </r>
       <r>    6.7586    0.0000 </r>
       <r>    6.8153    0.0000 </r>
       <r>    7.1379    0.0000 </r>
       <r>    7.1925    0.0000 </r>
       <r>    8.2571    0.0000 </r>
       <r>    8.7882    0.0000 </r>
      </set>
      <set comment="kpoint 5">
       <r>  -40.9018    1.0000 </r>
       <r>  -40.9018    1.0000 </r>
       <r>  -40.8185    1.0000 </r>
       <r>  -40.8182    1.0000 </r>
       <r>  -40.8178    1.0000 </r>
       <r>  -40.8175    1.0000 </r>
       <r>  -12.5658    1.0000 </r>
       <r>  -12.4740    1.0000 </r>
       <r>   -9.6077    1.0000 </r>
       <r>   -9.5186    1.0000 </r>
       <r>   -9.5101    1.0000 </r>
       <r>   -9.4087    1.0000 </r>
       <r>   -9.3992    1.0000 </r>
       <r>   -9.3907    1.0000 </r>
       <r>   -5.4603    1.0000 </r>
       <r>   -5.1497    1.0000 </r>
       <r>   -2.4700    1.0000 </r>
       <r>   -2.3577    1.0000 </r>
       <r>   -2.2008    1.0000 </r>
       <r>   -2.1836    1.0000 </r>
       <r>   -2.0943    1.0000 </r>
       <r>   -2.0423    1.0000 </r>
       <r>   -0.2567    1.0000 </r>
       <r>   -0.2431    1.0000 </r>
       <r>   -0.1784    1.0000 </r>
       <r>   -0.0465    1.0000 </r>
       <r>    0.3451    1.0000 </r>
       <r>    0.6411    1.0000 </r>
       <r>    1.0385    1.0000 </r>
       <r>    1.0690    1.0000 </r>
       <r>    1.0847    1.0000 </r>
       <r>    1.3899    1.0000 </r>
       <r>    1.6904    1.0000 </r>
       <r>    1.8314    1.0000 </r>
       <r>    1.8442    1.0000 </r>
       <r>    1.9331    1.0000 </r>
       <r>    1.9384    1.0000 </r>
       <r>    2.3074    1.0000 </r>
       <r>    4.9616    0.0000 </r>
       <r>    5.4333    0.0000 </r>
       <r>    6.0671    0.0000 </r>
       <r>    6.3500    0.0000 </r>
       <r>    6.8524    0.0000 </r>
       <r>    6.9757    0.0000 </r>
       <r>    7.0797    0.0000 </r>
       <r>    7.3383    0.0000 </r>
       <r>    8.3009    0.0000 </r>
       <r>    8.6402    0.0000 </r>
      </set>
      <set comment="kpoint 6">
       <r>  -40.9018    1.0000 </r>
       <r>  -40.9018    1.0000 </r>
       <r>  -40.8183    1.0000 </r>
       <r>  -40.8180    1.0000 </r>
       <r>  -40.8179    1.0000 </r>
       <r>  -40.8176    1.0000 </r>
       <r>  -12.5414    1.0000 </r>
       <r>  -12.4954    1.0000 </r>
       <r>   -9.6517    1.0000 </r>
       <r>   -9.5973    1.0000 </r>
       <r>   -9.4379    1.0000 </r>
       <r>   -9.4031    1.0000 </r>
       <r>   -9.3939    1.0000 </r>
       <r>   -9.3662    1.0000 </r>
       <r>   -5.3496    1.0000 </r>
       <r>   -5.1938    1.0000 </r>
       <r>   -2.4677    1.0000 </r>
       <r>   -2.4148    1.0000 </r>
       <r>   -2.2665    1.0000 </r>
       <r>   -2.1881    1.0000 </r>
       <r>   -2.0532    1.0000 </r>
       <r>   -2.0050    1.0000 </r>
       <r>   -0.2107    1.0000 </r>
       <r>   -0.1647    1.0000 </r>
       <r>    0.0087    1.0000 </r>
       <r>    0.0610    1.0000 </r>
       <r>    0.2801    1.0000 </r>
       <r>    0.5716    1.0000 </r>
       <r>    0.8683    1.0000 </r>
       <r>    0.9705    1.0000 </r>
       <r>    1.1573    1.0000 </r>
       <r>    1.2156    1.0000 </r>
       <r>    1.5584    1.0000 </r>
       <r>    1.6523    1.0000 </r>
       <r>    1.7873    1.0000 </r>
       <r>    1.8510    1.0000 </r>
       <r>    2.0364    1.0000 </r>
       <r>    2.1564    1.0000 </r>
       <r>    5.3393    0.0000 </r>
       <r>    5.6762    0.0000 </r>
       <r>    6.5304    0.0000 </r>
       <r>    6.5934    0.0000 </r>
       <r>    6.8954    0.0000 </r>
       <r>    6.9894    0.0000 </r>
       <r>    7.1645    0.0000 </r>
       <r>    7.2565    0.0000 </r>
       <r>    8.0780    0.0000 </r>
       <r>    8.5193    0.0000 </r>
      </set>
      <set comment="kpoint 7">
       <r>  -40.9018    1.0000 </r>
       <r>  -40.9018    1.0000 </r>
       <r>  -40.8185    1.0000 </r>
       <r>  -40.8182    1.0000 </r>
       <r>  -40.8178    1.0000 </r>
       <r>  -40.8175    1.0000 </r>
       <r>  -12.5333    1.0000 </r>
       <r>  -12.4781    1.0000 </r>
       <r>   -9.6170    1.0000 </r>
       <r>   -9.5447    1.0000 </r>
       <r>   -9.5062    1.0000 </r>
       <r>   -9.4918    1.0000 </r>
       <r>   -9.4026    1.0000 </r>
       <r>   -9.3966    1.0000 </r>
       <r>   -5.3060    1.0000 </r>
       <r>   -5.1426    1.0000 </r>
       <r>   -2.4042    1.0000 </r>
       <r>   -2.3387    1.0000 </r>
       <r>   -2.2642    1.0000 </r>
       <r>   -2.1656    1.0000 </r>
       <r>   -2.0986    1.0000 </r>
       <r>   -2.0095    1.0000 </r>
       <r>   -0.1891    1.0000 </r>
       <r>   -0.0973    1.0000 </r>
       <r>   -0.0815    1.0000 </r>
       <r>    0.1118    1.0000 </r>
       <r>    0.3919    1.0000 </r>
       <r>    0.5178    1.0000 </r>
       <r>    0.9176    1.0000 </r>
       <r>    0.9182    1.0000 </r>
       <r>    1.1019    1.0000 </r>
       <r>    1.3320    1.0000 </r>
       <r>    1.5972    1.0000 </r>
       <r>    1.6564    1.0000 </r>
       <r>    1.8160    1.0000 </r>
       <r>    1.9506    1.0000 </r>
       <r>    2.0329    1.0000 </r>
       <r>    2.1728    1.0000 </r>
       <r>    4.9580    0.0000 </r>
       <r>    5.2670    0.0000 </r>
       <r>    6.3355    0.0000 </r>
       <r>    6.4911    0.0000 </r>
       <r>    6.6054    0.0000 </r>
       <r>    6.7037    0.0000 </r>
       <r>    6.8958    0.0000 </r>
       <r>    6.9615    0.0000 </r>
       <r>    8.1600    0.0000 </r>
       <r>    8.6385    0.0000 </r>
      </set>
      <set comment="kpoint 8">
       <r>  -40.9018    1.0000 </r>
       <r>  -40.9018    1.0000 </r>
       <r>  -40.8184    1.0000 </r>
       <r>  -40.8181    1.0000 </r>
       <r>  -40.8179    1.0000 </r>
       <r>  -40.8176    1.0000 </r>
       <r>  -12.5177    1.0000 </r>
       <r>  -12.4900    1.0000 </r>
       <r>   -9.6205    1.0000 </r>
       <r>   -9.5912    1.0000 </r>
       <r>   -9.5201    1.0000 </r>
       <r>   -9.4629    1.0000 </r>
       <r>   -9.4056    1.0000 </r>
       <r>   -9.3823    1.0000 </r>
       <r>   -5.2153    1.0000 </r>
       <r>   -5.1332    1.0000 </r>
       <r>   -2.4268    1.0000 </r>
       <r>   -2.3597    1.0000 </r>
       <r>   -2.2171    1.0000 </r>
       <r>   -2.1986    1.0000 </r>
       <r>   -2.0440    1.0000 </r>
       <r>   -2.0266    1.0000 </r>
       <r>   -0.3237    1.0000 </r>
       <r>   -0.1847    1.0000 </r>
       <r>    0.0196    1.0000 </r>
       <r>    0.1101    1.0000 </r>
       <r>    0.4779    1.0000 </r>
       <r>    0.5535    1.0000 </r>
       <r>    0.7887    1.0000 </r>
       <r>    0.9202    1.0000 </r>
       <r>    1.0787    1.0000 </r>
       <r>    1.1813    1.0000 </r>
       <r>    1.5527    1.0000 </r>
       <r>    1.6248    1.0000 </r>
       <r>    1.7612    1.0000 </r>
       <r>    1.8703    1.0000 </r>
       <r>    2.0413    1.0000 </r>
       <r>    2.0992    1.0000 </r>
       <r>    5.3356    0.0000 </r>
       <r>    5.6075    0.0000 </r>
       <r>    6.4018    0.0000 </r>
       <r>    6.5321    0.0000 </r>
       <r>    6.7502    0.0000 </r>
       <r>    6.8568    0.0000 </r>
       <r>    7.0088    0.0000 </r>
       <r>    7.1845    0.0000 </r>
       <r>    8.1409    0.0000 </r>
       <r>    8.4745    0.0000 </r>
      </set>
     </set>
    </set>
   </array>
  </eigenvalues>
  <separator name="orbital magnetization" >
   <v name="MAGDIPOLOUT">      0.00000000      0.00000000      0.00000000</v>
  </separator>
  <dos>
   <i name="efermi">      2.39059801 </i>
   <total>
    <array>
     <dimension dim="1">gridpoints</dimension>
     <dimension dim="2">spin</dimension>
     <field>energy</field>
     <field>total</field>
     <field>integrated</field>
     <set>
      <set comment="spin 1">
       <r>   -43.3864     0.0000     0.0000 </r>
       <r>   -43.2042     0.0000     0.0000 </r>
       <r>   -43.0220     0.0000     0.0000 </r>
       <r>   -42.8398     0.0000     0.0000 </r>
       <r>   -42.6576     0.0000     0.0000 </r>
       <r>   -42.4754     0.0000     0.0000 </r>
       <r>   -42.2932     0.0000     0.0000 </r>
       <r>   -42.1110     0.0000     0.0000 </r>
       <r>   -41.9288     0.0000     0.0000 </r>
       <r>   -41.7466     0.0000     0.0000 </r>
       <r>   -41.5644     0.0000     0.0000 </r>
       <r>   -41.3822     0.0000     0.0000 </r>
       <r>   -41.2000     0.0000     0.0000 </r>
       <r>   -41.0178     0.0000     0.0000 </r>
       <r>   -40.8356     0.0000     4.0000 </r>
       <r>   -40.6534     0.0000    12.0000 </r>
       <r>   -40.4712     0.0000    12.0000 </r>
       <r>   -40.2890     0.0000    12.0000 </r>
       <r>   -40.1068     0.0000    12.0000 </r>
       <r>   -39.9246     0.0000    12.0000 </r>
       <r>   -39.7424     0.0000    12.0000 </r>
       <r>   -39.5602     0.0000    12.0000 </r>
       <r>   -39.3780     0.0000    12.0000 </r>
       <r>   -39.1958     0.0000    12.0000 </r>
       <r>   -39.0136     0.0000    12.0000 </r>
       <r>   -38.8314     0.0000    12.0000 </r>
       <r>   -38.6492     0.0000    12.0000 </r>
       <r>   -38.4670     0.0000    12.0000 </r>
       <r>   -38.2848     0.0000    12.0000 </r>
       <r>   -38.1026     0.0000    12.0000 </r>
       <r>   -37.9204     0.0000    12.0000 </r>
       <r>   -37.7383     0.0000    12.0000 </r>
       <r>   -37.5561     0.0000    12.0000 </r>
       <r>   -37.3739     0.0000    12.0000 </r>
       <r>   -37.1917     0.0000    12.0000 </r>
       <r>   -37.0095     0.0000    12.0000 </r>
       <r>   -36.8273     0.0000    12.0000 </r>
       <r>   -36.6451     0.0000    12.0000 </r>
       <r>   -36.4629     0.0000    12.0000 </r>
       <r>   -36.2807     0.0000    12.0000 </r>
       <r>   -36.0985     0.0000    12.0000 </r>
       <r>   -35.9163     0.0000    12.0000 </r>
       <r>   -35.7341     0.0000    12.0000 </r>
       <r>   -35.5519     0.0000    12.0000 </r>
       <r>   -35.3697     0.0000    12.0000 </r>
       <r>   -35.1875     0.0000    12.0000 </r>
       <r>   -35.0053     0.0000    12.0000 </r>
       <r>   -34.8231     0.0000    12.0000 </r>
       <r>   -34.6409     0.0000    12.0000 </r>
       <r>   -34.4587     0.0000    12.0000 </r>
       <r>   -34.2765     0.0000    12.0000 </r>
       <r>   -34.0943     0.0000    12.0000 </r>
       <r>   -33.9121     0.0000    12.0000 </r>
       <r>   -33.7299     0.0000    12.0000 </r>
       <r>   -33.5477     0.0000    12.0000 </r>
       <r>   -33.3655     0.0000    12.0000 </r>
       <r>   -33.1833     0.0000    12.0000 </r>
       <r>   -33.0011     0.0000    12.0000 </r>
       <r>   -32.8189     0.0000    12.0000 </r>
       <r>   -32.6367     0.0000    12.0000 </r>
       <r>   -32.4545     0.0000    12.0000 </r>
       <r>   -32.2723     0.0000    12.0000 </r>
       <r>   -32.0902     0.0000    12.0000 </r>
       <r>   -31.9080     0.0000    12.0000 </r>
       <r>   -31.7258     0.0000    12.0000 </r>
       <r>   -31.5436     0.0000    12.0000 </r>
       <r>   -31.3614     0.0000    12.0000 </r>
       <r>   -31.1792     0.0000    12.0000 </r>
       <r>   -30.9970     0.0000    12.0000 </r>
       <r>   -30.8148     0.0000    12.0000 </r>
       <r>   -30.6326     0.0000    12.0000 </r>
       <r>   -30.4504     0.0000    12.0000 </r>
       <r>   -30.2682     0.0000    12.0000 </r>
       <r>   -30.0860     0.0000    12.0000 </r>
       <r>   -29.9038     0.0000    12.0000 </r>
       <r>   -29.7216     0.0000    12.0000 </r>
       <r>   -29.5394     0.0000    12.0000 </r>
       <r>   -29.3572     0.0000    12.0000 </r>
       <r>   -29.1750     0.0000    12.0000 </r>
       <r>   -28.9928     0.0000    12.0000 </r>
       <r>   -28.8106     0.0000    12.0000 </r>
       <r>   -28.6284     0.0000    12.0000 </r>
       <r>   -28.4462     0.0000    12.0000 </r>
       <r>   -28.2640     0.0000    12.0000 </r>
       <r>   -28.0818     0.0000    12.0000 </r>
       <r>   -27.8996     0.0000    12.0000 </r>
       <r>   -27.7174     0.0000    12.0000 </r>
       <r>   -27.5352     0.0000    12.0000 </r>
       <r>   -27.3530     0.0000    12.0000 </r>
       <r>   -27.1708     0.0000    12.0000 </r>
       <r>   -26.9886     0.0000    12.0000 </r>
       <r>   -26.8064     0.0000    12.0000 </r>
       <r>   -26.6242     0.0000    12.0000 </r>
       <r>   -26.4420     0.0000    12.0000 </r>
       <r>   -26.2599     0.0000    12.0000 </r>
       <r>   -26.0777     0.0000    12.0000 </r>
       <r>   -25.8955     0.0000    12.0000 </r>
       <r>   -25.7133     0.0000    12.0000 </r>
       <r>   -25.5311     0.0000    12.0000 </r>
       <r>   -25.3489     0.0000    12.0000 </r>
       <r>   -25.1667     0.0000    12.0000 </r>
       <r>   -24.9845     0.0000    12.0000 </r>
       <r>   -24.8023     0.0000    12.0000 </r>
       <r>   -24.6201     0.0000    12.0000 </r>
       <r>   -24.4379     0.0000    12.0000 </r>
       <r>   -24.2557     0.0000    12.0000 </r>
       <r>   -24.0735     0.0000    12.0000 </r>
       <r>   -23.8913     0.0000    12.0000 </r>
       <r>   -23.7091     0.0000    12.0000 </r>
       <r>   -23.5269     0.0000    12.0000 </r>
       <r>   -23.3447     0.0000    12.0000 </r>
       <r>   -23.1625     0.0000    12.0000 </r>
       <r>   -22.9803     0.0000    12.0000 </r>
       <r>   -22.7981     0.0000    12.0000 </r>
       <r>   -22.6159     0.0000    12.0000 </r>
       <r>   -22.4337     0.0000    12.0000 </r>
       <r>   -22.2515     0.0000    12.0000 </r>
       <r>   -22.0693     0.0000    12.0000 </r>
       <r>   -21.8871     0.0000    12.0000 </r>
       <r>   -21.7049     0.0000    12.0000 </r>
       <r>   -21.5227     0.0000    12.0000 </r>
       <r>   -21.3405     0.0000    12.0000 </r>
       <r>   -21.1583     0.0000    12.0000 </r>
       <r>   -20.9761     0.0000    12.0000 </r>
       <r>   -20.7939     0.0000    12.0000 </r>
       <r>   -20.6118     0.0000    12.0000 </r>
       <r>   -20.4296     0.0000    12.0000 </r>
       <r>   -20.2474     0.0000    12.0000 </r>
       <r>   -20.0652     0.0000    12.0000 </r>
       <r>   -19.8830     0.0000    12.0000 </r>
       <r>   -19.7008     0.0000    12.0000 </r>
       <r>   -19.5186     0.0000    12.0000 </r>
       <r>   -19.3364     0.0000    12.0000 </r>
       <r>   -19.1542     0.0000    12.0000 </r>
       <r>   -18.9720     0.0000    12.0000 </r>
       <r>   -18.7898     0.0000    12.0000 </r>
       <r>   -18.6076     0.0000    12.0000 </r>
       <r>   -18.4254     0.0000    12.0000 </r>
       <r>   -18.2432     0.0000    12.0000 </r>
       <r>   -18.0610     0.0000    12.0000 </r>
       <r>   -17.8788     0.0000    12.0000 </r>
       <r>   -17.6966     0.0000    12.0000 </r>
       <r>   -17.5144     0.0000    12.0000 </r>
       <r>   -17.3322     0.0000    12.0000 </r>
       <r>   -17.1500     0.0000    12.0000 </r>
       <r>   -16.9678     0.0000    12.0000 </r>
       <r>   -16.7856     0.0000    12.0000 </r>
       <r>   -16.6034     0.0000    12.0000 </r>
       <r>   -16.4212     0.0000    12.0000 </r>
       <r>   -16.2390     0.0000    12.0000 </r>
       <r>   -16.0568     0.0000    12.0000 </r>
       <r>   -15.8746     0.0000    12.0000 </r>
       <r>   -15.6924     0.0000    12.0000 </r>
       <r>   -15.5102     0.0000    12.0000 </r>
       <r>   -15.3280     0.0000    12.0000 </r>
       <r>   -15.1458     0.0000    12.0000 </r>
       <r>   -14.9636     0.0000    12.0000 </r>
       <r>   -14.7815     0.0000    12.0000 </r>
       <r>   -14.5993     0.0000    12.0000 </r>
       <r>   -14.4171     0.0000    12.0000 </r>
       <r>   -14.2349     0.0000    12.0000 </r>
       <r>   -14.0527     0.0000    12.0000 </r>
       <r>   -13.8705     0.0000    12.0000 </r>
       <r>   -13.6883     0.0000    12.0000 </r>
       <r>   -13.5061     0.0000    12.0000 </r>
       <r>   -13.3239     0.0000    12.0000 </r>
       <r>   -13.1417     0.0000    12.0000 </r>
       <r>   -12.9595     0.0000    12.0000 </r>
       <r>   -12.7773     0.0000    12.0000 </r>
       <r>   -12.5951     5.2299    12.0738 </r>
       <r>   -12.4129     0.0000    16.0000 </r>
       <r>   -12.2307     0.0000    16.0000 </r>
       <r>   -12.0485     0.0000    16.0000 </r>
       <r>   -11.8663     0.0000    16.0000 </r>
       <r>   -11.6841     0.0000    16.0000 </r>
       <r>   -11.5019     0.0000    16.0000 </r>
       <r>   -11.3197     0.0000    16.0000 </r>
       <r>   -11.1375     0.0000    16.0000 </r>
       <r>   -10.9553     0.0000    16.0000 </r>
       <r>   -10.7731     0.0000    16.0000 </r>
       <r>   -10.5909     0.0000    16.0000 </r>
       <r>   -10.4087     0.0000    16.0000 </r>
       <r>   -10.2265     0.0000    16.0000 </r>
       <r>   -10.0443     0.0000    16.0000 </r>
       <r>    -9.8621     0.0000    16.0000 </r>
       <r>    -9.6799     0.0000    16.0000 </r>
       <r>    -9.4977    19.9504    20.5458 </r>
       <r>    -9.3155     0.0000    28.0000 </r>
       <r>    -9.1334     0.0000    28.0000 </r>
       <r>    -8.9512     0.0000    28.0000 </r>
       <r>    -8.7690     0.0000    28.0000 </r>
       <r>    -8.5868     0.0000    28.0000 </r>
       <r>    -8.4046     0.0000    28.0000 </r>
       <r>    -8.2224     0.0000    28.0000 </r>
       <r>    -8.0402     0.0000    28.0000 </r>
       <r>    -7.8580     0.0000    28.0000 </r>
       <r>    -7.6758     0.0000    28.0000 </r>
       <r>    -7.4936     0.0000    28.0000 </r>
       <r>    -7.3114     0.0000    28.0000 </r>
       <r>    -7.1292     0.0000    28.0000 </r>
       <r>    -6.9470     0.0000    28.0000 </r>
       <r>    -6.7648     0.0000    28.0000 </r>
       <r>    -6.5826     0.0000    28.0000 </r>
       <r>    -6.4004     0.0000    28.0000 </r>
       <r>    -6.2182     0.0000    28.0000 </r>
       <r>    -6.0360     0.0000    28.0000 </r>
       <r>    -5.8538     0.0000    28.0000 </r>
       <r>    -5.6716     0.0000    28.0000 </r>
       <r>    -5.4894     1.4727    28.0816 </r>
       <r>    -5.3072     9.8552    29.2383 </r>
       <r>    -5.1250     3.2060    31.9706 </r>
       <r>    -4.9428     0.0000    32.0000 </r>
       <r>    -4.7606     0.0000    32.0000 </r>
       <r>    -4.5784     0.0000    32.0000 </r>
       <r>    -4.3962     0.0000    32.0000 </r>
       <r>    -4.2140     0.0000    32.0000 </r>
       <r>    -4.0318     0.0000    32.0000 </r>
       <r>    -3.8496     0.0000    32.0000 </r>
       <r>    -3.6674     0.0000    32.0000 </r>
       <r>    -3.4852     0.0000    32.0000 </r>
       <r>    -3.3031     0.0000    32.0000 </r>
       <r>    -3.1209     0.0000    32.0000 </r>
       <r>    -2.9387     0.0000    32.0000 </r>
       <r>    -2.7565     0.0000    32.0000 </r>
       <r>    -2.5743    10.0800    32.5865 </r>
       <r>    -2.3921    16.0010    35.5409 </r>
       <r>    -2.2099    21.0082    38.9202 </r>
       <r>    -2.0277    21.2041    43.2984 </r>
       <r>    -1.8455     0.0000    44.0000 </r>
       <r>    -1.6633     0.0000    44.0000 </r>
       <r>    -1.4811     0.0000    44.0000 </r>
       <r>    -1.2989     0.0000    44.0000 </r>
       <r>    -1.1167     0.0000    44.0000 </r>
       <r>    -0.9345     0.0000    44.0000 </r>
       <r>    -0.7523     0.0000    44.0000 </r>
       <r>    -0.5701     0.0000    44.0000 </r>
       <r>    -0.3879     0.0000    44.0000 </r>
       <r>    -0.2057    16.8359    45.2255 </r>
       <r>    -0.0235    15.2327    48.1657 </r>
       <r>     0.1587     7.7243    51.2192 </r>
       <r>     0.3409     6.6669    52.1967 </r>
       <r>     0.5231    15.1816    53.8463 </r>
       <r>     0.7053     2.2023    55.9244 </r>
       <r>     0.8875    13.0683    57.1117 </r>
       <r>     1.0697     3.3741    59.8386 </r>
       <r>     1.2519    12.9295    62.6206 </r>
       <r>     1.4341     4.3909    64.1179 </r>
       <r>     1.6163    15.6251    66.5477 </r>
       <r>     1.7985    18.8925    69.4751 </r>
       <r>     1.9807    16.0403    72.3232 </r>
       <r>     2.1629    11.2397    75.4163 </r>
       <r>     2.3450     0.0000    76.0000 </r>
       <r>     2.5272     0.0000    76.0000 </r>
       <r>     2.7094     0.0000    76.0000 </r>
       <r>     2.8916     0.0000    76.0000 </r>
       <r>     3.0738     0.0000    76.0000 </r>
       <r>     3.2560     0.0000    76.0000 </r>
       <r>     3.4382     0.0000    76.0000 </r>
       <r>     3.6204     0.0000    76.0000 </r>
       <r>     3.8026     0.0000    76.0000 </r>
       <r>     3.9848     0.0000    76.0000 </r>
       <r>     4.1670     0.0000    76.0000 </r>
       <r>     4.3492     0.0000    76.0000 </r>
       <r>     4.5314     0.0000    76.0000 </r>
       <r>     4.7136     0.0000    76.0000 </r>
       <r>     4.8958     0.0000    76.0000 </r>
       <r>     5.0780     2.5782    76.2516 </r>
       <r>     5.2602     3.0189    76.7666 </r>
       <r>     5.4424     4.9351    77.7781 </r>
       <r>     5.6246     6.3173    78.7354 </r>
       <r>     5.8068     3.1006    79.5057 </r>
       <r>     5.9890     1.7461    79.9488 </r>
       <r>     6.1712     1.3776    80.1375 </r>
       <r>     6.3534    15.4542    80.7276 </r>
       <r>     6.5356     9.4382    83.6971 </r>
       <r>     6.7178    10.4795    84.7281 </r>
       <r>     6.9000     9.2982    87.4169 </r>
       <r>     7.0822    14.9120    89.4944 </r>
       <r>     7.2644     3.5062    91.8928 </r>
       <r>     7.4466     0.0000    92.0000 </r>
       <r>     7.6288     0.0000    92.0000 </r>
       <r>     7.8110     0.0000    92.0000 </r>
       <r>     7.9932     1.2293    92.0298 </r>
       <r>     8.1753     9.3599    93.4861 </r>
       <r>     8.3575     0.0000    94.0000 </r>
       <r>     8.5397     7.8154    94.5402 </r>
       <r>     8.7219     2.5952    95.9070 </r>
       <r>     8.9041     0.0000    96.0000 </r>
       <r>     9.0863     0.0000    96.0000 </r>
       <r>     9.2685     0.0000    96.0000 </r>
       <r>     9.4507     0.0000    96.0000 </r>
       <r>     9.6329     0.0000    96.0000 </r>
       <r>     9.8151     0.0000    96.0000 </r>
       <r>     9.9973     0.0000    96.0000 </r>
       <r>    10.1795     0.0000    96.0000 </r>
       <r>    10.3617     0.0000    96.0000 </r>
       <r>    10.5439     0.0000    96.0000 </r>
       <r>    10.7261     0.0000    96.0000 </r>
       <r>    10.9083     0.0000    96.0000 </r>
       <r>    11.0905     0.0000    96.0000 </r>
       <r>    11.2727     0.0000    96.0000 </r>
      </set>
     </set>
    </array>
   </total>
  </dos>
 </calculation>
 <structure name="finalpos" >
  <crystal>
   <varray name="basis" >
    <v>       7.58022417       0.00000000       0.00000000 </v>
    <v>       0.00000000       6.33347261       0.00000000 </v>
    <v>       0.00000000       0.00000000       6.01079077 </v>
   </varray>
   <i name="volume">    288.57290863 </i>
   <varray name="rec_basis" >
    <v>       0.13192222       0.00000000       0.00000000 </v>
    <v>       0.00000000       0.15789126       0.00000000 </v>
    <v>       0.00000000       0.00000000       0.16636746 </v>
   </varray>
  </crystal>
  <varray name="positions" >
   <v>       0.00000000       0.31941529       0.30043929 </v>
   <v>       0.50000000       0.68058471       0.80043929 </v>
   <v>       0.22019414       0.16019156       0.20344538 </v>
   <v>       0.27980586       0.83980844       0.70344538 </v>
   <v>       0.72019414       0.83980844       0.70344538 </v>
   <v>       0.77980586       0.16019156       0.20344538 </v>
   <v>       0.00000000       0.61078260       0.15834255 </v>
   <v>       0.50000000       0.38921740       0.65834255 </v>
   <v>       0.00000000       0.34009032       0.63890154 </v>
   <v>       0.50000000       0.65990968       0.13890154 </v>
   <v>       0.00000000       0.65732938       0.78741976 </v>
   <v>       0.50000000       0.34267062       0.28741976 </v>
   <v>       0.25596835       0.18672616       0.80120375 </v>
   <v>       0.24403165       0.81327384       0.30120375 </v>
   <v>       0.75596835       0.81327384       0.30120375 </v>
   <v>       0.74403165       0.18672616       0.80120375 </v>
  </varray>
 </structure>
</modeling>
