unknown system                          
           1
     7.580224    0.000000    0.000000
     0.000000    6.333473    0.000000
     0.000000    0.000000    6.010791
   P    S    Li
   2   8   6
Direct configuration=     1
   0.00000000  0.31941529  0.30043929
   0.50000000  0.68058471  0.80043929
   0.22019414  0.16019156  0.20344538
   0.27980586  0.83980844  0.70344538
   0.72019414  0.83980844  0.70344538
   0.77980586  0.16019156  0.20344538
   0.00000000  0.61078260  0.15834255
   0.50000000  0.38921740  0.65834255
   0.00000000  0.34009032  0.63890154
   0.50000000  0.65990968  0.13890154
   0.00000000  0.65732938  0.78741976
   0.50000000  0.34267062  0.28741976
   0.25596835  0.18672616  0.80120375
   0.24403165  0.81327384  0.30120375
   0.75596835  0.81327384  0.30120375
   0.74403165  0.18672616  0.80120375
