  16  16   0   0
  0.2083333E+02  0.6933613E-09  0.6933613E-09  0.6933613E-09  0.5000000E-15
  1.000000000000000E-004
  CAR 
 unknown system                          
      9.83721111    -48.65644390  301      3.06169607      1.00000000
    -48.656  0.0000E+00  0.0000E+00
    -48.461  0.0000E+00  0.0000E+00
    -48.266  0.0000E+00  0.0000E+00
    -48.072  0.0000E+00  0.0000E+00
    -47.877  0.0000E+00  0.0000E+00
    -47.682  0.0000E+00  0.0000E+00
    -47.487  0.0000E+00  0.0000E+00
    -47.292  0.0000E+00  0.0000E+00
    -47.097  0.0000E+00  0.0000E+00
    -46.902  0.0000E+00  0.0000E+00
    -46.707  0.0000E+00  0.0000E+00
    -46.512  0.0000E+00  0.0000E+00
    -46.317  0.0000E+00  0.0000E+00
    -46.122  0.0000E+00  0.0000E+00
    -45.927  0.0000E+00  0.4000E+01
    -45.732  0.0000E+00  0.4000E+01
    -45.537  0.0000E+00  0.4000E+01
    -45.342  0.0000E+00  0.4000E+01
    -45.147  0.0000E+00  0.4000E+01
    -44.952  0.0000E+00  0.4000E+01
    -44.757  0.0000E+00  0.4000E+01
    -44.562  0.0000E+00  0.4000E+01
    -44.367  0.0000E+00  0.4000E+01
    -44.172  0.0000E+00  0.4000E+01
    -43.977  0.0000E+00  0.4000E+01
    -43.782  0.0000E+00  0.4000E+01
    -43.587  0.0000E+00  0.4000E+01
    -43.392  0.0000E+00  0.4000E+01
    -43.197  0.0000E+00  0.4000E+01
    -43.002  0.0000E+00  0.4000E+01
    -42.807  0.0000E+00  0.4000E+01
    -42.612  0.0000E+00  0.1200E+02
    -42.417  0.0000E+00  0.1200E+02
    -42.222  0.0000E+00  0.1200E+02
    -42.027  0.0000E+00  0.1200E+02
    -41.832  0.0000E+00  0.1200E+02
    -41.637  0.0000E+00  0.1200E+02
    -41.442  0.0000E+00  0.1200E+02
    -41.247  0.0000E+00  0.1200E+02
    -41.052  0.0000E+00  0.1200E+02
    -40.857  0.0000E+00  0.1200E+02
    -40.662  0.0000E+00  0.1200E+02
    -40.467  0.0000E+00  0.1200E+02
    -40.272  0.0000E+00  0.1200E+02
    -40.077  0.0000E+00  0.1200E+02
    -39.882  0.0000E+00  0.1200E+02
    -39.687  0.0000E+00  0.1200E+02
    -39.492  0.0000E+00  0.1200E+02
    -39.297  0.0000E+00  0.1200E+02
    -39.102  0.0000E+00  0.1200E+02
    -38.908  0.0000E+00  0.1200E+02
    -38.713  0.0000E+00  0.1200E+02
    -38.518  0.0000E+00  0.1200E+02
    -38.323  0.0000E+00  0.1200E+02
    -38.128  0.0000E+00  0.1200E+02
    -37.933  0.0000E+00  0.1200E+02
    -37.738  0.0000E+00  0.1200E+02
    -37.543  0.0000E+00  0.1200E+02
    -37.348  0.0000E+00  0.1200E+02
    -37.153  0.0000E+00  0.1200E+02
    -36.958  0.0000E+00  0.1200E+02
    -36.763  0.0000E+00  0.1200E+02
    -36.568  0.0000E+00  0.1200E+02
    -36.373  0.0000E+00  0.1200E+02
    -36.178  0.0000E+00  0.1200E+02
    -35.983  0.0000E+00  0.1200E+02
    -35.788  0.0000E+00  0.1200E+02
    -35.593  0.0000E+00  0.1200E+02
    -35.398  0.0000E+00  0.1200E+02
    -35.203  0.0000E+00  0.1200E+02
    -35.008  0.0000E+00  0.1200E+02
    -34.813  0.0000E+00  0.1200E+02
    -34.618  0.0000E+00  0.1200E+02
    -34.423  0.0000E+00  0.1200E+02
    -34.228  0.0000E+00  0.1200E+02
    -34.033  0.0000E+00  0.1200E+02
    -33.838  0.0000E+00  0.1200E+02
    -33.643  0.0000E+00  0.1200E+02
    -33.448  0.0000E+00  0.1200E+02
    -33.253  0.0000E+00  0.1200E+02
    -33.058  0.0000E+00  0.1200E+02
    -32.863  0.0000E+00  0.1200E+02
    -32.668  0.0000E+00  0.1200E+02
    -32.473  0.0000E+00  0.1200E+02
    -32.278  0.0000E+00  0.1200E+02
    -32.083  0.0000E+00  0.1200E+02
    -31.888  0.0000E+00  0.1200E+02
    -31.693  0.0000E+00  0.1200E+02
    -31.498  0.0000E+00  0.1200E+02
    -31.303  0.0000E+00  0.1200E+02
    -31.108  0.0000E+00  0.1200E+02
    -30.913  0.0000E+00  0.1200E+02
    -30.718  0.0000E+00  0.1200E+02
    -30.523  0.0000E+00  0.1200E+02
    -30.328  0.0000E+00  0.1200E+02
    -30.133  0.0000E+00  0.1200E+02
    -29.938  0.0000E+00  0.1200E+02
    -29.743  0.0000E+00  0.1200E+02
    -29.549  0.0000E+00  0.1200E+02
    -29.354  0.0000E+00  0.1200E+02
    -29.159  0.0000E+00  0.1200E+02
    -28.964  0.0000E+00  0.1200E+02
    -28.769  0.0000E+00  0.1200E+02
    -28.574  0.0000E+00  0.1200E+02
    -28.379  0.0000E+00  0.1200E+02
    -28.184  0.0000E+00  0.1200E+02
    -27.989  0.0000E+00  0.1200E+02
    -27.794  0.0000E+00  0.1200E+02
    -27.599  0.0000E+00  0.1200E+02
    -27.404  0.0000E+00  0.1200E+02
    -27.209  0.0000E+00  0.1200E+02
    -27.014  0.0000E+00  0.1200E+02
    -26.819  0.0000E+00  0.1200E+02
    -26.624  0.0000E+00  0.1200E+02
    -26.429  0.0000E+00  0.1200E+02
    -26.234  0.0000E+00  0.1200E+02
    -26.039  0.0000E+00  0.1200E+02
    -25.844  0.0000E+00  0.1200E+02
    -25.649  0.0000E+00  0.1200E+02
    -25.454  0.0000E+00  0.1200E+02
    -25.259  0.0000E+00  0.1200E+02
    -25.064  0.0000E+00  0.1200E+02
    -24.869  0.0000E+00  0.1200E+02
    -24.674  0.0000E+00  0.1200E+02
    -24.479  0.0000E+00  0.1200E+02
    -24.284  0.0000E+00  0.1200E+02
    -24.089  0.0000E+00  0.1200E+02
    -23.894  0.0000E+00  0.1200E+02
    -23.699  0.0000E+00  0.1200E+02
    -23.504  0.0000E+00  0.1200E+02
    -23.309  0.0000E+00  0.1200E+02
    -23.114  0.0000E+00  0.1200E+02
    -22.919  0.0000E+00  0.1200E+02
    -22.724  0.0000E+00  0.1200E+02
    -22.529  0.0000E+00  0.1200E+02
    -22.334  0.0000E+00  0.1200E+02
    -22.139  0.0000E+00  0.1200E+02
    -21.944  0.0000E+00  0.1200E+02
    -21.749  0.0000E+00  0.1200E+02
    -21.554  0.0000E+00  0.1200E+02
    -21.359  0.0000E+00  0.1200E+02
    -21.164  0.0000E+00  0.1200E+02
    -20.969  0.0000E+00  0.1200E+02
    -20.774  0.0000E+00  0.1200E+02
    -20.579  0.0000E+00  0.1200E+02
    -20.385  0.0000E+00  0.1200E+02
    -20.190  0.0000E+00  0.1200E+02
    -19.995  0.0000E+00  0.1200E+02
    -19.800  0.0000E+00  0.1200E+02
    -19.605  0.0000E+00  0.1200E+02
    -19.410  0.0000E+00  0.1200E+02
    -19.215  0.0000E+00  0.1200E+02
    -19.020  0.0000E+00  0.1200E+02
    -18.825  0.0000E+00  0.1200E+02
    -18.630  0.0000E+00  0.1200E+02
    -18.435  0.0000E+00  0.1200E+02
    -18.240  0.0000E+00  0.1200E+02
    -18.045  0.0000E+00  0.1200E+02
    -17.850  0.0000E+00  0.1200E+02
    -17.655  0.0000E+00  0.1200E+02
    -17.460  0.0000E+00  0.1200E+02
    -17.265  0.0000E+00  0.1200E+02
    -17.070  0.0000E+00  0.1200E+02
    -16.875  0.0000E+00  0.1200E+02
    -16.680  0.0000E+00  0.1200E+02
    -16.485  0.0000E+00  0.1200E+02
    -16.290  0.0000E+00  0.1200E+02
    -16.095  0.0000E+00  0.1200E+02
    -15.900  0.0000E+00  0.1200E+02
    -15.705  0.0000E+00  0.1200E+02
    -15.510  0.0000E+00  0.1200E+02
    -15.315  0.0000E+00  0.1200E+02
    -15.120  0.0000E+00  0.1200E+02
    -14.925  0.0000E+00  0.1200E+02
    -14.730  0.0000E+00  0.1200E+02
    -14.535  0.0000E+00  0.1200E+02
    -14.340  0.0000E+00  0.1200E+02
    -14.145  0.0000E+00  0.1200E+02
    -13.950  0.0000E+00  0.1200E+02
    -13.755  0.3532E+01  0.1213E+02
    -13.560  0.0000E+00  0.1400E+02
    -13.365  0.1533E+02  0.1485E+02
    -13.170  0.1514E+01  0.1594E+02
    -12.975  0.0000E+00  0.1600E+02
    -12.780  0.0000E+00  0.1600E+02
    -12.585  0.0000E+00  0.1600E+02
    -12.390  0.0000E+00  0.1600E+02
    -12.195  0.0000E+00  0.1600E+02
    -12.000  0.0000E+00  0.1600E+02
    -11.805  0.0000E+00  0.1600E+02
    -11.610  0.0000E+00  0.1600E+02
    -11.415  0.0000E+00  0.1600E+02
    -11.221  0.0000E+00  0.1600E+02
    -11.026  0.1867E+01  0.1608E+02
    -10.831  0.6537E+01  0.1762E+02
    -10.636  0.1088E+02  0.1818E+02
    -10.441  0.7056E+01  0.1961E+02
    -10.246  0.2911E+02  0.2095E+02
    -10.051  0.1494E+01  0.2400E+02
     -9.856  0.2557E+01  0.2408E+02
     -9.661  0.8468E+01  0.2527E+02
     -9.466  0.2736E+01  0.2647E+02
     -9.271  0.1440E+02  0.2753E+02
     -9.076  0.0000E+00  0.2800E+02
     -8.881  0.0000E+00  0.2800E+02
     -8.686  0.0000E+00  0.2800E+02
     -8.491  0.0000E+00  0.2800E+02
     -8.296  0.0000E+00  0.2800E+02
     -8.101  0.0000E+00  0.2800E+02
     -7.906  0.0000E+00  0.2800E+02
     -7.711  0.0000E+00  0.2800E+02
     -7.516  0.0000E+00  0.2800E+02
     -7.321  0.0000E+00  0.2800E+02
     -7.126  0.0000E+00  0.2800E+02
     -6.931  0.0000E+00  0.2800E+02
     -6.736  0.0000E+00  0.2800E+02
     -6.541  0.0000E+00  0.2800E+02
     -6.346  0.0000E+00  0.2800E+02
     -6.151  0.2033E+00  0.2800E+02
     -5.956  0.9774E+01  0.2872E+02
     -5.761  0.1551E+01  0.2997E+02
     -5.566  0.4238E+01  0.3034E+02
     -5.371  0.4893E+01  0.3139E+02
     -5.176  0.1017E+01  0.3196E+02
     -4.981  0.0000E+00  0.3200E+02
     -4.786  0.0000E+00  0.3200E+02
     -4.591  0.3565E-01  0.3200E+02
     -4.396  0.6323E+00  0.3207E+02
     -4.201  0.1227E+01  0.3225E+02
     -4.006  0.4758E+01  0.3271E+02
     -3.811  0.0000E+00  0.3400E+02
     -3.616  0.1326E+01  0.3408E+02
     -3.421  0.6981E+01  0.3573E+02
     -3.226  0.1022E+02  0.3638E+02
     -3.031  0.5952E+01  0.3817E+02
     -2.836  0.2632E+01  0.3980E+02
     -2.641  0.1187E+02  0.4146E+02
     -2.446  0.2954E+01  0.4222E+02
     -2.251  0.2913E+01  0.4282E+02
     -2.056  0.2941E+01  0.4339E+02
     -1.862  0.0000E+00  0.4400E+02
     -1.667  0.0000E+00  0.4400E+02
     -1.472  0.0000E+00  0.4400E+02
     -1.277  0.1082E+02  0.4479E+02
     -1.082  0.5284E+01  0.4694E+02
     -0.887  0.3702E+01  0.4769E+02
     -0.692  0.8601E+01  0.4857E+02
     -0.497  0.1701E+01  0.4987E+02
     -0.302  0.5861E+01  0.5099E+02
     -0.107  0.1250E+02  0.5288E+02
      0.088  0.7466E+01  0.5506E+02
      0.283  0.3061E+01  0.5588E+02
      0.478  0.4871E+01  0.5684E+02
      0.673  0.7925E+01  0.5822E+02
      0.868  0.5302E+01  0.5953E+02
      1.063  0.1063E+02  0.6107E+02
      1.258  0.1334E+02  0.6294E+02
      1.453  0.1738E+02  0.6558E+02
      1.648  0.5871E+01  0.6782E+02
      1.843  0.3486E+01  0.6816E+02
      2.038  0.2087E+01  0.6983E+02
      2.233  0.7537E+01  0.7172E+02
      2.428  0.1551E+02  0.7299E+02
      2.623  0.4917E+01  0.7426E+02
      2.818  0.4367E+01  0.7579E+02
      3.013  0.5337E-01  0.7600E+02
      3.208  0.0000E+00  0.7600E+02
      3.403  0.0000E+00  0.7600E+02
      3.598  0.2574E+01  0.7618E+02
      3.793  0.8899E+01  0.7726E+02
      3.988  0.6206E+01  0.7942E+02
      4.183  0.1034E+01  0.7993E+02
      4.378  0.7530E+00  0.8007E+02
      4.573  0.5271E+01  0.8051E+02
      4.768  0.7229E+01  0.8174E+02
      4.963  0.5638E+01  0.8316E+02
      5.158  0.8737E+01  0.8476E+02
      5.353  0.1939E+02  0.8708E+02
      5.548  0.1008E+01  0.8804E+02
      5.743  0.1022E+02  0.8917E+02
      5.938  0.1649E+02  0.9073E+02
      6.133  0.4360E+00  0.9202E+02
      6.328  0.5218E+01  0.9237E+02
      6.523  0.7151E+01  0.9363E+02
      6.718  0.5630E+01  0.9477E+02
      6.913  0.2364E+01  0.9565E+02
      7.108  0.8783E+00  0.9595E+02
      7.302  0.0000E+00  0.9600E+02
      7.497  0.0000E+00  0.9600E+02
      7.692  0.0000E+00  0.9600E+02
      7.887  0.0000E+00  0.9600E+02
      8.082  0.0000E+00  0.9600E+02
      8.277  0.0000E+00  0.9600E+02
      8.472  0.0000E+00  0.9600E+02
      8.667  0.0000E+00  0.9600E+02
      8.862  0.0000E+00  0.9600E+02
      9.057  0.0000E+00  0.9600E+02
      9.252  0.0000E+00  0.9600E+02
      9.447  0.0000E+00  0.9600E+02
      9.642  0.0000E+00  0.9600E+02
      9.837  0.0000E+00  0.9600E+02
