  16  16   0   0
  0.1802101E+02  0.7485344E-09  0.6407358E-09  0.6011853E-09  0.5000000E-15
  1.000000000000000E-004
  CAR 
 unknown system                          
     11.07624549    -44.06290644  301      2.48372764      1.00000000
    -44.063  0.0000E+00  0.0000E+00
    -43.879  0.0000E+00  0.0000E+00
    -43.695  0.0000E+00  0.0000E+00
    -43.512  0.0000E+00  0.0000E+00
    -43.328  0.0000E+00  0.0000E+00
    -43.144  0.0000E+00  0.0000E+00
    -42.960  0.0000E+00  0.0000E+00
    -42.776  0.0000E+00  0.0000E+00
    -42.593  0.0000E+00  0.0000E+00
    -42.409  0.0000E+00  0.0000E+00
    -42.225  0.0000E+00  0.0000E+00
    -42.041  0.0000E+00  0.0000E+00
    -41.857  0.0000E+00  0.0000E+00
    -41.674  0.0000E+00  0.0000E+00
    -41.490  0.0000E+00  0.4000E+01
    -41.306  0.0000E+00  0.4000E+01
    -41.122  0.0000E+00  0.4000E+01
    -40.938  0.0000E+00  0.4000E+01
    -40.755  0.0000E+00  0.4000E+01
    -40.571  0.0000E+00  0.1200E+02
    -40.387  0.0000E+00  0.1200E+02
    -40.203  0.0000E+00  0.1200E+02
    -40.019  0.0000E+00  0.1200E+02
    -39.836  0.0000E+00  0.1200E+02
    -39.652  0.0000E+00  0.1200E+02
    -39.468  0.0000E+00  0.1200E+02
    -39.284  0.0000E+00  0.1200E+02
    -39.100  0.0000E+00  0.1200E+02
    -38.917  0.0000E+00  0.1200E+02
    -38.733  0.0000E+00  0.1200E+02
    -38.549  0.0000E+00  0.1200E+02
    -38.365  0.0000E+00  0.1200E+02
    -38.181  0.0000E+00  0.1200E+02
    -37.998  0.0000E+00  0.1200E+02
    -37.814  0.0000E+00  0.1200E+02
    -37.630  0.0000E+00  0.1200E+02
    -37.446  0.0000E+00  0.1200E+02
    -37.262  0.0000E+00  0.1200E+02
    -37.079  0.0000E+00  0.1200E+02
    -36.895  0.0000E+00  0.1200E+02
    -36.711  0.0000E+00  0.1200E+02
    -36.527  0.0000E+00  0.1200E+02
    -36.343  0.0000E+00  0.1200E+02
    -36.160  0.0000E+00  0.1200E+02
    -35.976  0.0000E+00  0.1200E+02
    -35.792  0.0000E+00  0.1200E+02
    -35.608  0.0000E+00  0.1200E+02
    -35.424  0.0000E+00  0.1200E+02
    -35.241  0.0000E+00  0.1200E+02
    -35.057  0.0000E+00  0.1200E+02
    -34.873  0.0000E+00  0.1200E+02
    -34.689  0.0000E+00  0.1200E+02
    -34.505  0.0000E+00  0.1200E+02
    -34.322  0.0000E+00  0.1200E+02
    -34.138  0.0000E+00  0.1200E+02
    -33.954  0.0000E+00  0.1200E+02
    -33.770  0.0000E+00  0.1200E+02
    -33.586  0.0000E+00  0.1200E+02
    -33.403  0.0000E+00  0.1200E+02
    -33.219  0.0000E+00  0.1200E+02
    -33.035  0.0000E+00  0.1200E+02
    -32.851  0.0000E+00  0.1200E+02
    -32.667  0.0000E+00  0.1200E+02
    -32.484  0.0000E+00  0.1200E+02
    -32.300  0.0000E+00  0.1200E+02
    -32.116  0.0000E+00  0.1200E+02
    -31.932  0.0000E+00  0.1200E+02
    -31.748  0.0000E+00  0.1200E+02
    -31.565  0.0000E+00  0.1200E+02
    -31.381  0.0000E+00  0.1200E+02
    -31.197  0.0000E+00  0.1200E+02
    -31.013  0.0000E+00  0.1200E+02
    -30.830  0.0000E+00  0.1200E+02
    -30.646  0.0000E+00  0.1200E+02
    -30.462  0.0000E+00  0.1200E+02
    -30.278  0.0000E+00  0.1200E+02
    -30.094  0.0000E+00  0.1200E+02
    -29.911  0.0000E+00  0.1200E+02
    -29.727  0.0000E+00  0.1200E+02
    -29.543  0.0000E+00  0.1200E+02
    -29.359  0.0000E+00  0.1200E+02
    -29.175  0.0000E+00  0.1200E+02
    -28.992  0.0000E+00  0.1200E+02
    -28.808  0.0000E+00  0.1200E+02
    -28.624  0.0000E+00  0.1200E+02
    -28.440  0.0000E+00  0.1200E+02
    -28.256  0.0000E+00  0.1200E+02
    -28.073  0.0000E+00  0.1200E+02
    -27.889  0.0000E+00  0.1200E+02
    -27.705  0.0000E+00  0.1200E+02
    -27.521  0.0000E+00  0.1200E+02
    -27.337  0.0000E+00  0.1200E+02
    -27.154  0.0000E+00  0.1200E+02
    -26.970  0.0000E+00  0.1200E+02
    -26.786  0.0000E+00  0.1200E+02
    -26.602  0.0000E+00  0.1200E+02
    -26.418  0.0000E+00  0.1200E+02
    -26.235  0.0000E+00  0.1200E+02
    -26.051  0.0000E+00  0.1200E+02
    -25.867  0.0000E+00  0.1200E+02
    -25.683  0.0000E+00  0.1200E+02
    -25.499  0.0000E+00  0.1200E+02
    -25.316  0.0000E+00  0.1200E+02
    -25.132  0.0000E+00  0.1200E+02
    -24.948  0.0000E+00  0.1200E+02
    -24.764  0.0000E+00  0.1200E+02
    -24.580  0.0000E+00  0.1200E+02
    -24.397  0.0000E+00  0.1200E+02
    -24.213  0.0000E+00  0.1200E+02
    -24.029  0.0000E+00  0.1200E+02
    -23.845  0.0000E+00  0.1200E+02
    -23.661  0.0000E+00  0.1200E+02
    -23.478  0.0000E+00  0.1200E+02
    -23.294  0.0000E+00  0.1200E+02
    -23.110  0.0000E+00  0.1200E+02
    -22.926  0.0000E+00  0.1200E+02
    -22.742  0.0000E+00  0.1200E+02
    -22.559  0.0000E+00  0.1200E+02
    -22.375  0.0000E+00  0.1200E+02
    -22.191  0.0000E+00  0.1200E+02
    -22.007  0.0000E+00  0.1200E+02
    -21.823  0.0000E+00  0.1200E+02
    -21.640  0.0000E+00  0.1200E+02
    -21.456  0.0000E+00  0.1200E+02
    -21.272  0.0000E+00  0.1200E+02
    -21.088  0.0000E+00  0.1200E+02
    -20.904  0.0000E+00  0.1200E+02
    -20.721  0.0000E+00  0.1200E+02
    -20.537  0.0000E+00  0.1200E+02
    -20.353  0.0000E+00  0.1200E+02
    -20.169  0.0000E+00  0.1200E+02
    -19.985  0.0000E+00  0.1200E+02
    -19.802  0.0000E+00  0.1200E+02
    -19.618  0.0000E+00  0.1200E+02
    -19.434  0.0000E+00  0.1200E+02
    -19.250  0.0000E+00  0.1200E+02
    -19.066  0.0000E+00  0.1200E+02
    -18.883  0.0000E+00  0.1200E+02
    -18.699  0.0000E+00  0.1200E+02
    -18.515  0.0000E+00  0.1200E+02
    -18.331  0.0000E+00  0.1200E+02
    -18.148  0.0000E+00  0.1200E+02
    -17.964  0.0000E+00  0.1200E+02
    -17.780  0.0000E+00  0.1200E+02
    -17.596  0.0000E+00  0.1200E+02
    -17.412  0.0000E+00  0.1200E+02
    -17.229  0.0000E+00  0.1200E+02
    -17.045  0.0000E+00  0.1200E+02
    -16.861  0.0000E+00  0.1200E+02
    -16.677  0.0000E+00  0.1200E+02
    -16.493  0.0000E+00  0.1200E+02
    -16.310  0.0000E+00  0.1200E+02
    -16.126  0.0000E+00  0.1200E+02
    -15.942  0.0000E+00  0.1200E+02
    -15.758  0.0000E+00  0.1200E+02
    -15.574  0.0000E+00  0.1200E+02
    -15.391  0.0000E+00  0.1200E+02
    -15.207  0.0000E+00  0.1200E+02
    -15.023  0.0000E+00  0.1200E+02
    -14.839  0.0000E+00  0.1200E+02
    -14.655  0.0000E+00  0.1200E+02
    -14.472  0.0000E+00  0.1200E+02
    -14.288  0.0000E+00  0.1200E+02
    -14.104  0.0000E+00  0.1200E+02
    -13.920  0.0000E+00  0.1200E+02
    -13.736  0.0000E+00  0.1200E+02
    -13.553  0.0000E+00  0.1200E+02
    -13.369  0.0000E+00  0.1200E+02
    -13.185  0.0000E+00  0.1200E+02
    -13.001  0.0000E+00  0.1200E+02
    -12.817  0.0000E+00  0.1200E+02
    -12.634  0.0000E+00  0.1200E+02
    -12.450  0.7247E+02  0.1540E+02
    -12.266  0.0000E+00  0.1600E+02
    -12.082  0.0000E+00  0.1600E+02
    -11.898  0.0000E+00  0.1600E+02
    -11.715  0.0000E+00  0.1600E+02
    -11.531  0.0000E+00  0.1600E+02
    -11.347  0.0000E+00  0.1600E+02
    -11.163  0.0000E+00  0.1600E+02
    -10.979  0.0000E+00  0.1600E+02
    -10.796  0.0000E+00  0.1600E+02
    -10.612  0.0000E+00  0.1600E+02
    -10.428  0.0000E+00  0.1600E+02
    -10.244  0.0000E+00  0.1600E+02
    -10.060  0.0000E+00  0.1600E+02
     -9.877  0.0000E+00  0.1600E+02
     -9.693  0.1479E+02  0.1614E+02
     -9.509  0.1065E+02  0.1983E+02
     -9.325  0.3768E+02  0.2620E+02
     -9.141  0.0000E+00  0.2800E+02
     -8.958  0.0000E+00  0.2800E+02
     -8.774  0.0000E+00  0.2800E+02
     -8.590  0.0000E+00  0.2800E+02
     -8.406  0.0000E+00  0.2800E+02
     -8.222  0.0000E+00  0.2800E+02
     -8.039  0.0000E+00  0.2800E+02
     -7.855  0.0000E+00  0.2800E+02
     -7.671  0.0000E+00  0.2800E+02
     -7.487  0.0000E+00  0.2800E+02
     -7.303  0.0000E+00  0.2800E+02
     -7.120  0.0000E+00  0.2800E+02
     -6.936  0.0000E+00  0.2800E+02
     -6.752  0.0000E+00  0.2800E+02
     -6.568  0.0000E+00  0.2800E+02
     -6.384  0.0000E+00  0.2800E+02
     -6.201  0.0000E+00  0.2800E+02
     -6.017  0.0000E+00  0.2800E+02
     -5.833  0.0000E+00  0.2800E+02
     -5.649  0.2838E+00  0.2801E+02
     -5.466  0.4282E+01  0.2827E+02
     -5.282  0.6601E+01  0.2969E+02
     -5.098  0.7498E+01  0.3177E+02
     -4.914  0.0000E+00  0.3200E+02
     -4.730  0.0000E+00  0.3200E+02
     -4.547  0.0000E+00  0.3200E+02
     -4.363  0.0000E+00  0.3200E+02
     -4.179  0.0000E+00  0.3200E+02
     -3.995  0.0000E+00  0.3200E+02
     -3.811  0.0000E+00  0.3200E+02
     -3.628  0.0000E+00  0.3200E+02
     -3.444  0.0000E+00  0.3200E+02
     -3.260  0.0000E+00  0.3200E+02
     -3.076  0.0000E+00  0.3200E+02
     -2.892  0.0000E+00  0.3200E+02
     -2.709  0.5601E+01  0.3214E+02
     -2.525  0.1604E+02  0.3387E+02
     -2.341  0.6787E+01  0.3622E+02
     -2.157  0.1298E+02  0.3975E+02
     -1.973  0.1746E+02  0.4329E+02
     -1.790  0.0000E+00  0.4400E+02
     -1.606  0.0000E+00  0.4400E+02
     -1.422  0.0000E+00  0.4400E+02
     -1.238  0.0000E+00  0.4400E+02
     -1.054  0.0000E+00  0.4400E+02
     -0.871  0.0000E+00  0.4400E+02
     -0.687  0.0000E+00  0.4400E+02
     -0.503  0.0000E+00  0.4400E+02
     -0.319  0.5719E+01  0.4414E+02
     -0.135  0.1305E+02  0.4705E+02
      0.048  0.1142E+02  0.4934E+02
      0.232  0.1007E+02  0.5113E+02
      0.416  0.1060E+02  0.5256E+02
      0.600  0.5093E+01  0.5434E+02
      0.784  0.1182E+02  0.5632E+02
      0.967  0.1236E+02  0.5884E+02
      1.151  0.7470E+01  0.6105E+02
      1.335  0.9800E+01  0.6280E+02
      1.519  0.8053E+01  0.6443E+02
      1.703  0.1246E+02  0.6746E+02
      1.886  0.1725E+02  0.7040E+02
      2.070  0.5282E+01  0.7215E+02
      2.254  0.1025E+02  0.7455E+02
      2.438  0.7237E+00  0.7600E+02
      2.622  0.0000E+00  0.7600E+02
      2.805  0.0000E+00  0.7600E+02
      2.989  0.0000E+00  0.7600E+02
      3.173  0.0000E+00  0.7600E+02
      3.357  0.0000E+00  0.7600E+02
      3.541  0.0000E+00  0.7600E+02
      3.724  0.0000E+00  0.7600E+02
      3.908  0.0000E+00  0.7600E+02
      4.092  0.0000E+00  0.7600E+02
      4.276  0.0000E+00  0.7600E+02
      4.460  0.0000E+00  0.7600E+02
      4.643  0.0000E+00  0.7600E+02
      4.827  0.0000E+00  0.7600E+02
      5.011  0.1701E+01  0.7605E+02
      5.195  0.2815E+01  0.7646E+02
      5.379  0.2779E+01  0.7721E+02
      5.562  0.6028E+01  0.7804E+02
      5.746  0.5254E+01  0.7918E+02
      5.930  0.2072E+01  0.7988E+02
      6.114  0.4057E+00  0.8000E+02
      6.298  0.4242E+01  0.8045E+02
      6.481  0.8291E+01  0.8167E+02
      6.665  0.9597E+01  0.8392E+02
      6.849  0.9835E+01  0.8633E+02
      7.033  0.4616E+01  0.8807E+02
      7.217  0.1582E+02  0.8986E+02
      7.400  0.3188E+01  0.9188E+02
      7.584  0.0000E+00  0.9200E+02
      7.768  0.2348E+00  0.9201E+02
      7.952  0.2179E+01  0.9218E+02
      8.135  0.6629E+01  0.9398E+02
      8.319  0.1808E+01  0.9429E+02
      8.503  0.1022E+02  0.9561E+02
      8.687  0.0000E+00  0.9600E+02
      8.871  0.0000E+00  0.9600E+02
      9.054  0.0000E+00  0.9600E+02
      9.238  0.0000E+00  0.9600E+02
      9.422  0.0000E+00  0.9600E+02
      9.606  0.0000E+00  0.9600E+02
      9.790  0.0000E+00  0.9600E+02
      9.973  0.0000E+00  0.9600E+02
     10.157  0.0000E+00  0.9600E+02
     10.341  0.0000E+00  0.9600E+02
     10.525  0.0000E+00  0.9600E+02
     10.709  0.0000E+00  0.9600E+02
     10.892  0.0000E+00  0.9600E+02
     11.076  0.0000E+00  0.9600E+02
