       N       E                     dE             d eps       ncg     rms          rms(c)
DAV:   1     0.509275950363E+03    0.50928E+03   -0.29067E+04   776   0.131E+03
DAV:   2    -0.102187587932E+02   -0.51949E+03   -0.49480E+03   936   0.308E+02
DAV:   3    -0.709216664690E+02   -0.60703E+02   -0.60302E+02  1056   0.969E+01
DAV:   4    -0.781482334349E+02   -0.72266E+01   -0.72016E+01  1416   0.314E+01
DAV:   5    -0.789958397876E+02   -0.84761E+00   -0.84741E+00  1112   0.743E+00    0.220E+01
RMM:   6    -0.764453451600E+02    0.25505E+01   -0.80316E+00   898   0.643E+00    0.149E+01
RMM:   7    -0.759968026270E+02    0.44854E+00   -0.22991E+00   978   0.389E+00    0.542E+00
RMM:   8    -0.759311069419E+02    0.65696E-01   -0.28433E-01  1027   0.159E+00    0.485E-01
RMM:   9    -0.759251511673E+02    0.59558E-02   -0.37711E-02  1156   0.567E-01    0.275E-01
RMM:  10    -0.759257543581E+02   -0.60319E-03   -0.11135E-02  1252   0.273E-01    0.126E-01
RMM:  11    -0.759261919275E+02   -0.43757E-03   -0.51085E-03  1238   0.160E-01    0.295E-02
RMM:  12    -0.759263971495E+02   -0.20522E-03   -0.24466E-03  1173   0.107E-01    0.192E-02
RMM:  13    -0.759264994920E+02   -0.10234E-03   -0.11350E-03   868   0.735E-02    0.155E-02
RMM:  14    -0.759265407061E+02   -0.41214E-04   -0.47465E-04   940   0.582E-02    0.137E-02
RMM:  15    -0.759265596770E+02   -0.18971E-04   -0.25360E-04   906   0.484E-02    0.853E-03
RMM:  16    -0.759265637268E+02   -0.40498E-05   -0.84682E-05   767   0.406E-02
   1 F= -.75926564E+02 E0= -.75926564E+02  d E =0.000000E+00
