       N       E                     dE             d eps       ncg     rms          rms(c)
DAV:   1     0.520070837471E+03    0.52007E+03   -0.28718E+04   960   0.130E+03
DAV:   2     0.756851562722E+01   -0.51250E+03   -0.48971E+03  1120   0.310E+02
DAV:   3    -0.586975877076E+02   -0.66266E+02   -0.64902E+02  1368   0.993E+01
DAV:   4    -0.667524480371E+02   -0.80549E+01   -0.79035E+01  1824   0.332E+01
DAV:   5    -0.677147537204E+02   -0.96231E+00   -0.96198E+00  1440   0.827E+00    0.266E+01
RMM:   6    -0.655256448424E+02    0.21891E+01   -0.64994E+00  1182   0.605E+00    0.169E+01
RMM:   7    -0.651623527523E+02    0.36329E+00   -0.41775E+00  1234   0.503E+00    0.355E+00
RMM:   8    -0.649473435049E+02    0.21501E+00   -0.21079E-01  1399   0.165E+00    0.956E-01
RMM:   9    -0.649693419177E+02   -0.21998E-01   -0.67583E-02  1438   0.730E-01    0.346E-01
