       N       E                     dE             d eps       ncg     rms          rms(c)
DAV:   1     0.546309028908E+03    0.54631E+03   -0.28423E+04   768   0.128E+03
DAV:   2     0.183607336302E+02   -0.52795E+03   -0.50401E+03   896   0.305E+02
DAV:   3    -0.579101955676E+02   -0.76271E+02   -0.74984E+02  1072   0.105E+02
DAV:   4    -0.661346205582E+02   -0.82244E+01   -0.81312E+01  1448   0.346E+01
DAV:   5    -0.674999210670E+02   -0.13653E+01   -0.13646E+01  1208   0.933E+00    0.309E+01
RMM:   6    -0.638783690196E+02    0.36216E+01   -0.75807E+00   997   0.682E+00    0.192E+01
RMM:   7    -0.630012919806E+02    0.87708E+00   -0.67619E+00  1038   0.626E+00    0.367E+00
RMM:   8    -0.627992115778E+02    0.20208E+00   -0.90205E-01  1029   0.281E+00    0.792E-01
RMM:   9    -0.627830131360E+02    0.16198E-01   -0.10878E-01  1328   0.823E-01    0.570E-01
RMM:  10    -0.627862912355E+02   -0.32781E-02   -0.38674E-02  1324   0.469E-01    0.304E-01
RMM:  11    -0.627881818322E+02   -0.18906E-02   -0.14942E-02  1256   0.355E-01    0.136E-01
RMM:  12    -0.627888043300E+02   -0.62250E-03   -0.87147E-03  1258   0.236E-01    0.543E-02
RMM:  13    -0.627892532783E+02   -0.44895E-03   -0.38833E-03  1261   0.176E-01    0.253E-02
RMM:  14    -0.627895280221E+02   -0.27474E-03   -0.28042E-03  1260   0.140E-01    0.133E-02
RMM:  15    -0.627896607598E+02   -0.13274E-03   -0.13962E-03   952   0.111E-01    0.120E-02
RMM:  16    -0.627897563052E+02   -0.95545E-04   -0.99958E-04  1041   0.959E-02    0.100E-02
RMM:  17    -0.627898130740E+02   -0.56769E-04   -0.60999E-04  1038   0.830E-02    0.860E-03
RMM:  18    -0.627898524846E+02   -0.39411E-04   -0.42059E-04   925   0.723E-02    0.785E-03
RMM:  19    -0.627898740583E+02   -0.21574E-04   -0.25311E-04   912   0.657E-02    0.432E-03
RMM:  20    -0.627898912567E+02   -0.17198E-04   -0.20372E-04   917   0.618E-02    0.171E-03
RMM:  21    -0.627899030944E+02   -0.11838E-04   -0.14945E-04   891   0.576E-02
   1 F= -.62789903E+02 E0= -.62789903E+02  d E =0.000000E+00
