 vasp.5.4.4.18Apr17-6-g9f103f2a35 (build Feb 28 2020 14:15:47) complex          
  
 executed on             LinuxIFC date 2022.04.28  04:16:45
 running on   64 total cores
 distrk:  each k-point on   64 cores,    1 groups
 distr:  one band on NCORES_PER_BAND=  16 cores,    4 groups


--------------------------------------------------------------------------------------------------------


 INCAR:
 POTCAR:    PAW P 26Mar2009                       
 POTCAR:    PAW S 27Mar2009                       
 POTCAR:    PAW Li_sv 10Sep2004                   
 POTCAR:    PAW P 26Mar2009                       
   VRHFIN =P : s2p3                                                             
   LEXCH  = CA                                                                  
   EATOM  =   176.5121 eV,   12.9733 Ry                                         
                                                                                
   TITEL  = PAW P 26Mar2009                                                     
   LULTRA =        F    use ultrasoft PP ?                                      
   IUNSCR =        1    unscreen: 0-lin 1-nonlin 2-no                           
   RPACOR =    1.500    partial core radius                                     
   POMASS =   30.974; ZVAL   =    5.000    mass and valenz                      
   RCORE  =    1.900    outmost cutoff radius                                   
   RWIGS  =    2.330; RWIGS  =    1.233    wigner-seitz radius (au A)           
   ENMAX  =  255.155; ENMIN  =  191.366 eV                                      
   ICORE  =        2    local potential                                         
   LCOR   =        T    correct aug charges                                     
   LPAW   =        T    paw PP                                                  
   EAUG   =  342.924                                                            
   DEXC   =    0.000                                                            
   RMAX   =    1.935    core radius for proj-oper                               
   RAUG   =    1.300    factor for augmentation sphere                          
   RDEP   =    1.931    radius for radial grids                                 
   RDEPT  =    1.780    core radius for aug-charge                              
                                                                                
   Atomic configuration                                                         
    6 entries                                                                   
     n  l   j            E        occ.                                          
     1  0  0.50     -2072.7761   2.0000                                         
     2  0  0.50      -172.9483   2.0000                                         
     2  1  1.50      -124.4644   6.0000                                         
     3  0  0.50       -14.0086   2.0000                                         
     3  1  0.50        -5.6037   3.0000                                         
     3  2  1.50        -6.8029   0.0000                                         
   Description                                                                  
     l       E           TYP  RCUT    TYP  RCUT                                 
     0    -14.0086211     23  1.900                                             
     0    -11.8189335     23  1.900                                             
     1     -5.6037292     23  1.900                                             
     1     -0.3527308     23  1.900                                             
     2     -6.8029130     23  1.900                                             
  local pseudopotential read in
  partial core-charges read in
  partial kinetic energy density read in
  atomic valenz-charges read in
  non local Contribution for L=           0  read in
    real space projection operators read in
  non local Contribution for L=           0  read in
    real space projection operators read in
  non local Contribution for L=           1  read in
    real space projection operators read in
  non local Contribution for L=           1  read in
    real space projection operators read in
    PAW grid and wavefunctions read in
 
   number of l-projection  operators is LMAX  =           4
   number of lm-projection operators is LMMAX =           8
 
 POTCAR:    PAW S 27Mar2009                       
   VRHFIN =S : s2p4                                                             
   LEXCH  = CA                                                                  
   EATOM  =   277.3745 eV,   20.3864 Ry                                         
                                                                                
   TITEL  = PAW S 27Mar2009                                                     
   LULTRA =        F    use ultrasoft PP ?                                      
   IUNSCR =        1    unscreen: 0-lin 1-nonlin 2-no                           
   RPACOR =    1.500    partial core radius                                     
   POMASS =   32.066; ZVAL   =    6.000    mass and valenz                      
   RCORE  =    1.900    outmost cutoff radius                                   
   RWIGS  =    2.200; RWIGS  =    1.164    wigner-seitz radius (au A)           
   ENMAX  =  258.602; ENMIN  =  193.952 eV                                      
   ICORE  =        2    local potential                                         
   LCOR   =        T    correct aug charges                                     
   LPAW   =        T    paw PP                                                  
   EAUG   =  335.092                                                            
   DEXC   =    0.000                                                            
   RMAX   =    1.942    core radius for proj-oper                               
   RAUG   =    1.300    factor for augmentation sphere                          
   RDEP   =    1.954    radius for radial grids                                 
   RDEPT  =    1.744    core radius for aug-charge                              
                                                                                
   Atomic configuration                                                         
    6 entries                                                                   
     n  l   j            E        occ.                                          
     1  0  0.50     -2393.1495   2.0000                                         
     2  0  0.50      -210.5411   2.0000                                         
     2  1  1.50      -156.4410   6.0000                                         
     3  0  0.50       -17.2664   2.0000                                         
     3  1  0.50        -7.1129   4.0000                                         
     3  2  1.50        -8.1635   0.0000                                         
   Description                                                                  
     l       E           TYP  RCUT    TYP  RCUT                                 
     0    -17.2664422     23  1.900                                             
     0    -15.8420823     23  1.900                                             
     1     -7.1129072     23  1.900                                             
     1     -2.8398274     23  1.900                                             
     2     -8.1634956     23  1.900                                             
  local pseudopotential read in
  partial core-charges read in
  partial kinetic energy density read in
  atomic valenz-charges read in
  non local Contribution for L=           0  read in
    real space projection operators read in
  non local Contribution for L=           0  read in
    real space projection operators read in
  non local Contribution for L=           1  read in
    real space projection operators read in
  non local Contribution for L=           1  read in
    real space projection operators read in
    PAW grid and wavefunctions read in
 
   number of l-projection  operators is LMAX  =           4
   number of lm-projection operators is LMMAX =           8
 
 POTCAR:    PAW Li_sv 10Sep2004                   
   VRHFIN =Li: 1s2s                                                             
   LEXCH  = CA                                                                  
   EATOM  =   199.5738 eV,   14.6683 Ry                                         
                                                                                
   TITEL  = PAW Li_sv 10Sep2004                                                 
   LULTRA =        F    use ultrasoft PP ?                                      
   IUNSCR =        0    unscreen: 0-lin 1-nonlin 2-no                           
   RPACOR =    0.000    partial core radius                                     
   POMASS =    7.010; ZVAL   =    3.000    mass and valenz                      
   RCORE  =    1.700    outmost cutoff radius                                   
   RWIGS  =    2.050; RWIGS  =    1.085    wigner-seitz radius (au A)           
   ENMAX  =  498.387; ENMIN  =  373.790 eV                                      
   ICORE  =        2    local potential                                         
   LCOR   =        T    correct aug charges                                     
   LPAW   =        T    paw PP                                                  
   EAUG   =  628.945                                                            
   RMAX   =    1.732    core radius for proj-oper                               
   RAUG   =    1.300    factor for augmentation sphere                          
   RDEP   =    1.728    radius for radial grids                                 
   RDEPT  =    1.329    core radius for aug-charge                              
                                                                                
   Atomic configuration                                                         
    4 entries                                                                   
     n  l   j            E        occ.                                          
     1  0  0.50       -51.0884   2.0000                                         
     2  0  0.50        -2.8766   1.0000                                         
     2  1  0.50        -2.8708   0.0000                                         
     3  2  1.50        -1.3606   0.0000                                         
   Description                                                                  
     l       E           TYP  RCUT    TYP  RCUT                                 
     0    -51.0884324     23  1.400                                             
     0     -2.8766458     23  1.700                                             
     1     -2.8708293     23  1.400                                             
     2     -1.3605826     23  1.400                                             
  local pseudopotential read in
  atomic valenz-charges read in
  non local Contribution for L=           0  read in
    real space projection operators read in
  non local Contribution for L=           0  read in
    real space projection operators read in
  non local Contribution for L=           1  read in
    real space projection operators read in
    PAW grid and wavefunctions read in
 
   number of l-projection  operators is LMAX  =           3
   number of lm-projection operators is LMMAX =           5
 
 Optimization of the real space projectors (new method)

 maximal supplied QI-value         = 19.84
 optimisation between [QCUT,QGAM] = [ 10.32, 20.83] = [ 29.81,121.55] Ry 
 Optimized for a Real-space Cutoff    1.39 Angstroem

   l    n(q)    QCUT    max X(q) W(low)/X(q) W(high)/X(q)  e(spline) 
   0      9    10.318   158.476    0.64E-04    0.80E-04    0.60E-07
   0      9    10.318   128.097    0.63E-04    0.79E-04    0.60E-07
   1      8    10.318    73.217    0.18E-03    0.19E-03    0.20E-06
   1      8    10.318    48.248    0.18E-03    0.19E-03    0.19E-06
 Optimization of the real space projectors (new method)

 maximal supplied QI-value         = 19.84
 optimisation between [QCUT,QGAM] = [ 10.32, 20.83] = [ 29.81,121.55] Ry 
 Optimized for a Real-space Cutoff    1.39 Angstroem

   l    n(q)    QCUT    max X(q) W(low)/X(q) W(high)/X(q)  e(spline) 
   0      9    10.318   180.455    0.73E-04    0.81E-04    0.62E-07
   0      9    10.318   157.733    0.72E-04    0.81E-04    0.62E-07
   1      8    10.318    66.201    0.18E-03    0.20E-03    0.20E-06
   1      8    10.318    49.617    0.18E-03    0.20E-03    0.20E-06
 Optimization of the real space projectors (new method)

 maximal supplied QI-value         = 22.11
 optimisation between [QCUT,QGAM] = [ 10.39, 20.78] = [ 30.24,120.96] Ry 
 Optimized for a Real-space Cutoff    1.20 Angstroem

   l    n(q)    QCUT    max X(q) W(low)/X(q) W(high)/X(q)  e(spline) 
   0      7    10.392    10.443    0.77E-04    0.41E-05    0.30E-07
   0      7    10.392     8.514    0.20E-03    0.36E-04    0.67E-07
   1      7    10.392     5.406    0.20E-03    0.20E-03    0.12E-06
  PAW P 26Mar2009                       :
 energy of atom  1       EATOM= -176.5121
 kinetic energy error for atom=    0.0021 (will be added to EATOM!!)
  PAW S 27Mar2009                       :
 energy of atom  2       EATOM= -277.3745
 kinetic energy error for atom=    0.0041 (will be added to EATOM!!)
  PAW Li_sv 10Sep2004                   :
 energy of atom  3       EATOM= -199.5738
 kinetic energy error for atom=    0.0564 (will be added to EATOM!!)
 
 
 POSCAR: Good luck                               
  positions in cartesian coordinates
  No initial velocities read in
 exchange correlation table for  LEXCH =        2
   RHO(1)=    0.500       N(1)  =     2000
   RHO(2)=  100.500       N(2)  =     4000
 


--------------------------------------------------------------------------------------------------------


 ion  position               nearest neighbor table
   1  0.000  0.674  0.330-   7 2.00   9 2.00   3 2.00   6 2.00  14 2.43  15 2.43
   2  0.500  0.326  0.830-   8 2.00   4 2.00  10 2.00   5 2.00  13 2.43  16 2.43
   3  0.217  0.854  0.336-   1 2.00  14 2.12  12 2.15  13 2.47
   4  0.283  0.146  0.836-   2 2.00  13 2.12  11 2.15  14 2.47
   5  0.717  0.146  0.836-   2 2.00  16 2.12  11 2.15  15 2.47
   6  0.783  0.854  0.336-   1 2.00  15 2.12  12 2.15  16 2.47
   7  0.000  0.485  0.595-   1 2.00   9 2.75
   8  0.500  0.515  0.095-   2 2.00  10 2.75
   9  0.000  0.501  0.052-   1 2.00  14 2.41  15 2.41  11 2.51   7 2.75
  10  0.500  0.499  0.552-   2 2.00  13 2.41  16 2.41  12 2.51   8 2.75
  11  0.000  0.139  0.890-   4 2.15   5 2.15  14 2.18  15 2.18   9 2.51
  12  0.500  0.861  0.390-   3 2.15   6 2.15  13 2.18  16 2.18  10 2.51
  13  0.379  0.152  0.504-  16 1.82   4 2.12  12 2.18  10 2.41   2 2.43   3 2.47
  14  0.121  0.848  0.004-  15 1.82   3 2.12  11 2.18   9 2.41   1 2.43   4 2.47
  15  0.879  0.848  0.004-  14 1.82   6 2.12  11 2.18   9 2.41   1 2.43   5 2.47
  16  0.621  0.152  0.504-  13 1.82   5 2.12  12 2.18  10 2.41   2 2.43   6 2.47
 
  LATTYP: Found a simple orthorhombic cell.
 ALAT       =     6.0079161842
 B/A-ratio  =     1.0625987554
 C/A-ratio  =     1.2510382633
  
  Lattice vectors:
  
 A1 = (  -0.0000032331,   0.0000002110,  -6.0079161842)
 A2 = (  -0.0000529934,  -6.3840042598,   0.0000002233)
 A3 = (  -7.5161330290,   0.0000558288,  -0.0000040424)


Analysis of symmetry for initial positions (statically):
=====================================================================
 Subroutine PRICEL returns:
 Original cell was already a primitive cell.
 

 Routine SETGRP: Setting up the symmetry group for a 
 simple orthorhombic supercell.


 Subroutine GETGRP returns: Found  2 space group operations
 (whereof  1 operations were pure point group operations)
 out of a pool of  8 trial point group operations.


The static configuration has the point symmetry C_1 .
 The point group associated with its full space group is C_2 .


Analysis of symmetry for dynamics (positions and initial velocities):
=====================================================================
 Subroutine PRICEL returns:
 Original cell was already a primitive cell.
 

 Routine SETGRP: Setting up the symmetry group for a 
 simple orthorhombic supercell.


 Subroutine GETGRP returns: Found  2 space group operations
 (whereof  1 operations were pure point group operations)
 out of a pool of  8 trial point group operations.


The dynamic configuration has the point symmetry C_1 .
 The point group associated with its full space group is C_2 .


 Subroutine INISYM returns: Found  2 space group operations
 (whereof  1 operations are pure point group operations),
 and found     1 'primitive' translations

 
 
 KPOINTS: Automatic mesh                          

Automatic generation of k-mesh.
Space group operators:
 irot       det(A)        alpha          n_x          n_y          n_z        tau_x        tau_y        tau_z
    1     1.000000     0.000000     1.000000     0.000000     0.000000     0.000000     0.000000     0.000000
    2     1.000000   180.000000    -0.000001     0.000000     1.000000    -0.500000    -0.000000    -0.500000
 
 Subroutine IBZKPT returns following result:
 ===========================================
 
 Found     10 irreducible k-points:
 
 Following reciprocal coordinates:
            Coordinates               Weight
  0.000000  0.000000  0.000000      1.000000
  0.333333 -0.000000  0.000000      2.000000
  0.000000  0.333333 -0.000000      2.000000
  0.333333  0.333333 -0.000000      2.000000
 -0.333333  0.333333  0.000000      2.000000
 -0.000000  0.000000  0.333333      2.000000
  0.333333 -0.000000  0.333333      4.000000
  0.000000  0.333333  0.333333      4.000000
  0.333333  0.333333  0.333333      4.000000
 -0.333333  0.333333  0.333333      4.000000
 
 Following cartesian coordinates:
            Coordinates               Weight
  0.000000  0.000000  0.000000      1.000000
  0.044349 -0.000000 -0.000000      2.000000
  0.000000  0.052214  0.000000      2.000000
  0.044349  0.052213 -0.000000      2.000000
 -0.044349  0.052214  0.000000      2.000000
 -0.000000  0.000000  0.055482      2.000000
  0.044349 -0.000000  0.055482      4.000000
  0.000000  0.052214  0.055482      4.000000
  0.044349  0.052213  0.055482      4.000000
 -0.044349  0.052214  0.055482      4.000000
 
 TETIRR: Found     75 inequivalent tetrahedra from      162


--------------------------------------------------------------------------------------------------------




 Dimension of arrays:
   k-points           NKPTS =     10   k-points in BZ     NKDIM =     10   number of bands    NBANDS=     48
   number of dos      NEDOS =    301   number of ions     NIONS =     16
   non local maximal  LDIM  =      4   non local SUM 2l+1 LMDIM =      8
   total plane-waves  NPLWV =  96000
   max r-space proj   IRMAX =   3777   max aug-charges    IRDMAX=  10690
   dimension x,y,z NGX =    50 NGY =   48 NGZ =   40
   dimension x,y,z NGXF=   100 NGYF=   96 NGZF=   80
   support grid    NGXF=   100 NGYF=   96 NGZF=   80
   ions per type =               2   8   6
   NGX,Y,Z   is equivalent  to a cutoff of  11.06, 12.50, 11.07 a.u.
   NGXF,Y,Z  is equivalent  to a cutoff of  22.12, 25.00, 22.14 a.u.

 SYSTEM =  unknown system                          
 POSCAR =  Good luck                               

 Startparameter for this run:
   NWRITE =      2    write-flag & timer
   PREC   = accura    normal or accurate (medium, high low for compatibility)
   ISTART =      0    job   : 0-new  1-cont  2-samecut
   ICHARG =      2    charge: 1-file 2-atom 10-const
   ISPIN  =      1    spin polarized calculation?
   LNONCOLLINEAR =      F non collinear calculations
   LSORBIT =      F    spin-orbit coupling
   INIWAV =      1    electr: 0-lowe 1-rand  2-diag
   LASPH  =      F    aspherical Exc in radial PAW
   METAGGA=      F    non-selfconsistent MetaGGA calc.

 Electronic Relaxation 1
   ENCUT  =  420.0 eV  30.87 Ry    5.56 a.u.  12.56 10.67 10.04*2*pi/ulx,y,z
   ENINI  =  420.0     initial cutoff
   ENAUG  =  628.9 eV  augmentation charge cutoff
   NELM   =    100;   NELMIN=  2; NELMDL= -5     # of ELM steps 
   EDIFF  = 0.2E-04   stopping-criterion for ELM
   LREAL  =      T    real-space projection
   NLSPLINE    = F    spline interpolate recip. space projectors
   LCOMPAT=      F    compatible to vasp.4.4
   GGA_COMPAT  = T    GGA compatible to vasp.4.4-vasp.4.6
   LMAXPAW     = -100 max onsite density
   LMAXMIX     =    2 max onsite mixed and CHGCAR
   VOSKOWN=      0    Vosko Wilk Nusair interpolation
   ROPT   =   -0.00025  -0.00025  -0.00025
 Ionic relaxation
   EDIFFG = 0.2E-03   stopping-criterion for IOM
   NSW    =      0    number of steps for IOM
   NBLOCK =      1;   KBLOCK =      1    inner block; outer block 
   IBRION =     -1    ionic relax: 0-MD 1-quasi-New 2-CG
   NFREE  =      1    steps in history (QN), initial steepest desc. (CG)
   ISIF   =      7    stress and relaxation
   IWAVPR =     10    prediction:  0-non 1-charg 2-wave 3-comb
   ISYM   =      2    0-nonsym 1-usesym 2-fastsym
   LCORR  =      T    Harris-Foulkes like correction to forces

   POTIM  = 0.5000    time-step for ionic-motion
   TEIN   =    0.0    initial temperature
   TEBEG  =    0.0;   TEEND  =   0.0 temperature during run
   SMASS  =  -3.00    Nose mass-parameter (am)
   estimated Nose-frequenzy (Omega)   =  0.10E-29 period in steps =****** mass=  -0.129E-26a.u.
   SCALEE = 1.0000    scale energy and forces
   NPACO  =    256;   APACO  = 16.0  distance and # of slots for P.C.
   PSTRESS=    0.0 pullay stress

  Mass of Ions in am
   POMASS =  30.97 32.07  7.01
  Ionic Valenz
   ZVAL   =   5.00  6.00  3.00
  Atomic Wigner-Seitz radii
   RWIGS  =  -1.00 -1.00 -1.00
  virtual crystal weights 
   VCA    =   1.00  1.00  1.00
   NELECT =      76.0000    total number of electrons
   NUPDOWN=      -1.0000    fix difference up-down

 DOS related values:
   EMIN   =  10.00;   EMAX   =-10.00  energy-range for DOS
   EFERMI =   0.00
   ISMEAR =    -5;   SIGMA  =   0.20  broadening in eV -4-tet -1-fermi 0-gaus

 Electronic relaxation 2 (details)
   IALGO  =     68    algorithm
   LDIAG  =      T    sub-space diagonalisation (order eigenvalues)
   LSUBROT=      F    optimize rotation matrix (better conditioning)
   TURBO    =      0    0=normal 1=particle mesh
   IRESTART =      0    0=no restart 2=restart with 2 vectors
   NREBOOT  =      0    no. of reboots
   NMIN     =      0    reboot dimension
   EREF     =   0.00    reference energy to select bands
   IMIX   =      4    mixing-type and parameters
     AMIX     =   0.40;   BMIX     =  1.00
     AMIX_MAG =   1.60;   BMIX_MAG =  1.00
     AMIN     =   0.10
     WC   =   100.;   INIMIX=   1;  MIXPRE=   1;  MAXMIX= -45

 Intra band minimization:
   WEIMIN = 0.0000     energy-eigenvalue tresh-hold
   EBREAK =  0.10E-06  absolut break condition
   DEPER  =   0.30     relativ break condition  

   TIME   =   0.40     timestep for ELM

  volume/ion in A,a.u.               =      18.02       121.59
  Fermi-wavevector in a.u.,A,eV,Ry     =   1.049725  1.983693 14.992566  1.101923
  Thomas-Fermi vector in A             =   2.184699
 
 Write flags
   LWAVE        =      F    write WAVECAR
   LDOWNSAMPLE  =      F    k-point downsampling of WAVECAR
   LCHARG       =      F    write CHGCAR
   LVTOT        =      F    write LOCPOT, total local potential
   LVHAR        =      F    write LOCPOT, Hartree potential only
   LELF         =      F    write electronic localiz. function (ELF)
   LORBIT       =      0    0 simple, 1 ext, 2 COOP (PROOUT), +10 PAW based schemes


 Dipole corrections
   LMONO  =      F    monopole corrections only (constant potential shift)
   LDIPOL =      F    correct potential (dipole corrections)
   IDIPOL =      0    1-x, 2-y, 3-z, 4-all directions 
   EPSILON=  1.0000000 bulk dielectric constant

 Exchange correlation treatment:
   GGA     =    --    GGA type
   LEXCH   =     2    internal setting for exchange type
   VOSKOWN=      0    Vosko Wilk Nusair interpolation
   LHFCALC =     F    Hartree Fock is set to
   LHFONE  =     F    Hartree Fock one center treatment
   AEXX    =    0.0000 exact exchange contribution

 Linear response parameters
   LEPSILON=     F    determine dielectric tensor
   LRPA    =     F    only Hartree local field effects (RPA)
   LNABLA  =     F    use nabla operator in PAW spheres
   LVEL    =     F    velocity operator in full k-point grid
   LINTERFAST=   F  fast interpolation
   KINTER  =     0    interpolate to denser k-point grid
   CSHIFT  =0.1000    complex shift for real part using Kramers Kronig
   OMEGAMAX=  -1.0    maximum frequency
   DEG_THRESHOLD= 0.2000000E-02 threshold for treating states as degnerate
   RTIME   =   -0.100 relaxation time in fs
  (WPLASMAI=    0.000 imaginary part of plasma frequency in eV, 0.658/RTIME)
   DFIELD  = 0.0000000 0.0000000 0.0000000 field for delta impulse in time
 
 Orbital magnetization related:
   ORBITALMAG=     F  switch on orbital magnetization
   LCHIMAG   =     F  perturbation theory with respect to B field
   DQ        =  0.001000  dq finite difference perturbation B field
   LLRAUG    =     F  two centre corrections for induced B field



--------------------------------------------------------------------------------------------------------


 Static calculation
 charge density and potential will be updated during run
 non-spin polarized calculation
 RMM-DIIS sequential band-by-band and
  variant of blocked Davidson during initial phase
 perform sub-space diagonalisation
    before iterative eigenvector-optimisation
 modified Broyden-mixing scheme, WC =      100.0
 initial mixing is a Kerker type mixing with AMIX =  0.4000 and BMIX =      1.0000
 Hartree-type preconditioning will be used
 using additional bands           10
 real space projection scheme for non local part
 use partial core corrections
 calculate Harris-corrections to forces 
   (improved forces if not selfconsistent)
 use of overlap-Matrix (Vanderbilt PP)
 Fermi weights with tetrahedron method with Bloechl corrections


--------------------------------------------------------------------------------------------------------


  energy-cutoff  :      420.00
  volume of cell :      288.28
      direct lattice vectors                 reciprocal lattice vectors
     7.516133029 -0.000055829  0.000004042     0.133047140 -0.000001104 -0.000000072
     0.000052993  6.384004260 -0.000000223     0.000001164  0.156641499  0.000000006
     0.000003233 -0.000000211  6.007916184    -0.000000090  0.000000006  0.166447062

  length of vectors
     7.516133029  6.384004260  6.007916184     0.133047140  0.156641499  0.166447062


 
 k-points in units of 2pi/SCALE and weight: Automatic mesh                          
   0.00000000  0.00000000  0.00000000       0.037
   0.04434905 -0.00000037 -0.00000002       0.074
   0.00000039  0.05221383  0.00000000       0.074
   0.04434943  0.05221347 -0.00000002       0.074
  -0.04434866  0.05221420  0.00000003       0.074
  -0.00000003  0.00000000  0.05548235       0.074
   0.04434902 -0.00000037  0.05548233       0.148
   0.00000036  0.05221384  0.05548236       0.148
   0.04434940  0.05221347  0.05548233       0.148
  -0.04434869  0.05221420  0.05548238       0.148
 
 k-points in reciprocal lattice and weights: Automatic mesh                          
   0.00000000  0.00000000  0.00000000       0.037
   0.33333333 -0.00000000  0.00000000       0.074
   0.00000000  0.33333333 -0.00000000       0.074
   0.33333333  0.33333333 -0.00000000       0.074
  -0.33333333  0.33333333  0.00000000       0.074
  -0.00000000  0.00000000  0.33333333       0.074
   0.33333333 -0.00000000  0.33333333       0.148
   0.00000000  0.33333333  0.33333333       0.148
   0.33333333  0.33333333  0.33333333       0.148
  -0.33333333  0.33333333  0.33333333       0.148
 
 position of ions in fractional coordinates (direct lattice) 
   0.00000048  0.67354486  0.32973145
   0.49999952  0.32645514  0.82973145
   0.21726437  0.85432851  0.33587254
   0.28273563  0.14567149  0.83587254
   0.71726437  0.14567149  0.83587254
   0.78273563  0.85432851  0.33587254
   0.00000169  0.48458975  0.59525846
   0.49999831  0.51541025  0.09525846
   0.00000181  0.50093648  0.05192196
   0.49999819  0.49906352  0.55192196
   0.00010732  0.13934841  0.88991458
   0.49989268  0.86065159  0.38991458
   0.37895671  0.15177069  0.50377849
   0.12104329  0.84822931  0.00377849
   0.87895671  0.84822931  0.00377849
   0.62104329  0.15177069  0.50377849
 
 position of ions in cartesian coordinates  (Angst):
   0.00004033  4.29991321  1.98099875
   3.75808292  2.08406289  4.98495894
   1.63303426  5.45402467  2.01789476
   2.12508904  0.92995143  5.02185328
   5.39106483  0.92992717  5.02185503
   5.88319149  5.45399310  2.01789705
   0.00004033  3.09362292  3.57626282
   3.75808141  3.29035328  0.57230675
   0.00004033  3.19798059  0.31194267
   3.75808113  3.18599563  3.31590278
   0.00081688  0.88960066  5.34653219
   3.75730676  5.49437542  2.34257596
   2.84829875  0.96888346  3.02666046
   0.90982240  5.41509278  0.02270117
   6.60640055  5.41505046  0.02270423
   4.66785363  0.96886995  3.02666143
 


--------------------------------------------------------------------------------------------------------


 k-point  1 :   0.0000 0.0000 0.0000  plane waves:    5641
 k-point  2 :   0.3333-0.0000 0.0000  plane waves:    5625
 k-point  3 :   0.0000 0.3333-0.0000  plane waves:    5608
 k-point  4 :   0.3333 0.3333-0.0000  plane waves:    5618
 k-point  5 :  -0.3333 0.3333 0.0000  plane waves:    5618
 k-point  6 :  -0.0000 0.0000 0.3333  plane waves:    5654
 k-point  7 :   0.3333-0.0000 0.3333  plane waves:    5613
 k-point  8 :   0.0000 0.3333 0.3333  plane waves:    5650
 k-point  9 :   0.3333 0.3333 0.3333  plane waves:    5636
 k-point 10 :  -0.3333 0.3333 0.3333  plane waves:    5636

 maximum and minimum number of plane-waves per node :       372      327

 maximum number of plane-waves:      5654
 maximum index in each direction: 
   IXMAX=   12   IYMAX=   10   IZMAX=   10
   IXMIN=  -12   IYMIN=  -11   IZMIN=  -10


 real space projection operators:
  total allocation   :       2797.50 KBytes
  max/ min on nodes  :        237.06        150.34


 parallel 3D FFT for wavefunctions:
    minimum data exchange during FFTs selected (reduces bandwidth)
 parallel 3D FFT for charge:
    minimum data exchange during FFTs selected (reduces bandwidth)


 total amount of memory used by VASP MPI-rank0    34057. kBytes
=======================================================================

   base      :      30000. kBytes
   nonlr-proj:       1304. kBytes
   fftplans  :        733. kBytes
   grid      :       1311. kBytes
   one-center:          3. kBytes
   wavefun   :        706. kBytes
 
     INWAV:  cpu time    0.0000: real time    0.0001
 Broyden mixing: mesh for mixing (old mesh)
   NGX = 25   NGY = 21   NGZ = 21
  (NGX  =100   NGY  = 96   NGZ  = 80)
  gives a total of  11025 points

 initial charge density was supplied:
 charge density of overlapping atoms calculated
 number of electron      76.0000000 magnetization 
 keeping initial charge density in first step


--------------------------------------------------------------------------------------------------------


 Maximum index for non-local projection operator          582
 Maximum index for augmentation-charges          595 (set IRDMAX)


--------------------------------------------------------------------------------------------------------


 First call to EWALD:  gamma=   0.268
 Maximum number of real-space cells 2x 3x 3
 Maximum number of reciprocal cells 3x 3x 3

    FEWALD:  cpu time    0.0048: real time    0.0048


--------------------------------------- Iteration      1(   1)  ---------------------------------------


    POTLOK:  cpu time    0.0071: real time    0.0154
    SETDIJ:  cpu time    0.0071: real time    0.0079
     EDDAV:  cpu time    0.2501: real time    0.2837
 BZINTS: Fermi energy: 15.001750; 76.000000 electrons
         Band energy:-144.269866;  BLOECHL correction: -0.028496
       DOS:  cpu time    0.0045: real time    0.0055
    --------------------------------------------
      LOOP:  cpu time    0.2688: real time    0.3125

 eigenvalue-minimisations  :   960
 total energy-change (2. order) : 0.5200708E+03  (-0.2871844E+04)
 number of electron      76.0000000 magnetization 
 augmentation part       76.0000000 magnetization 

 Free energy of the ion-electron system (eV)
  ---------------------------------------------------
  alpha Z        PSCENC =        68.45114304
  Ewald energy   TEWEN  =     -2564.34977613
  -Hartree energ DENC   =      -745.24129527
  -exchange      EXHF   =         0.00000000
  -V(xc)+E(xc)   XCENC  =       183.29052839
  PAW double counting   =      2494.22442938    -2541.12215007
  entropy T*S    EENTRO =         0.00000000
  eigenvalues    EBANDS =      -144.26986566
  atomic energy  EATOM  =      3769.08782378
  Solvation  Ediel_sol  =         0.00000000
  ---------------------------------------------------
  free energy    TOTEN  =       520.07083747 eV

  energy without entropy =      520.07083747  energy(sigma->0) =      520.07083747


--------------------------------------------------------------------------------------------------------




--------------------------------------- Iteration      1(   2)  ---------------------------------------


     EDDAV:  cpu time    0.2456: real time    0.2460
 BZINTS: Fermi energy:  5.480576; 76.000000 electrons
         Band energy:-656.772188;  BLOECHL correction:  0.000000
       DOS:  cpu time    0.0008: real time    0.0008
    --------------------------------------------
      LOOP:  cpu time    0.2464: real time    0.2469

 eigenvalue-minimisations  :  1120
 total energy-change (2. order) :-0.5125023E+03  (-0.4897096E+03)
 number of electron      76.0000000 magnetization 
 augmentation part       76.0000000 magnetization 

 Free energy of the ion-electron system (eV)
  ---------------------------------------------------
  alpha Z        PSCENC =        68.45114304
  Ewald energy   TEWEN  =     -2564.34977613
  -Hartree energ DENC   =      -745.24129527
  -exchange      EXHF   =         0.00000000
  -V(xc)+E(xc)   XCENC  =       183.29052839
  PAW double counting   =      2494.22442938    -2541.12215007
  entropy T*S    EENTRO =         0.00000000
  eigenvalues    EBANDS =      -656.77218750
  atomic energy  EATOM  =      3769.08782378
  Solvation  Ediel_sol  =         0.00000000
  ---------------------------------------------------
  free energy    TOTEN  =         7.56851563 eV

  energy without entropy =        7.56851563  energy(sigma->0) =        7.56851563


--------------------------------------------------------------------------------------------------------




--------------------------------------- Iteration      1(   3)  ---------------------------------------


     EDDAV:  cpu time    0.2781: real time    0.2795
 BZINTS: Fermi energy:  3.421318; 76.000000 electrons
         Band energy:-723.038291;  BLOECHL correction:  0.000000
       DOS:  cpu time    0.0009: real time    0.0009
    --------------------------------------------
      LOOP:  cpu time    0.2791: real time    0.2804

 eigenvalue-minimisations  :  1368
 total energy-change (2. order) :-0.6626610E+02  (-0.6490246E+02)
 number of electron      76.0000000 magnetization 
 augmentation part       76.0000000 magnetization 

 Free energy of the ion-electron system (eV)
  ---------------------------------------------------
  alpha Z        PSCENC =        68.45114304
  Ewald energy   TEWEN  =     -2564.34977613
  -Hartree energ DENC   =      -745.24129527
  -exchange      EXHF   =         0.00000000
  -V(xc)+E(xc)   XCENC  =       183.29052839
  PAW double counting   =      2494.22442938    -2541.12215007
  entropy T*S    EENTRO =         0.00000000
  eigenvalues    EBANDS =      -723.03829084
  atomic energy  EATOM  =      3769.08782378
  Solvation  Ediel_sol  =         0.00000000
  ---------------------------------------------------
  free energy    TOTEN  =       -58.69758771 eV

  energy without entropy =      -58.69758771  energy(sigma->0) =      -58.69758771


--------------------------------------------------------------------------------------------------------




--------------------------------------- Iteration      1(   4)  ---------------------------------------


     EDDAV:  cpu time    0.3513: real time    0.3516
 BZINTS: Fermi energy:  3.195807; 76.000000 electrons
         Band energy:-731.093151;  BLOECHL correction:  0.000000
       DOS:  cpu time    0.0008: real time    0.0008
    --------------------------------------------
      LOOP:  cpu time    0.3521: real time    0.3524

 eigenvalue-minimisations  :  1824
 total energy-change (2. order) :-0.8054860E+01  (-0.7903472E+01)
 number of electron      76.0000000 magnetization 
 augmentation part       76.0000000 magnetization 

 Free energy of the ion-electron system (eV)
  ---------------------------------------------------
  alpha Z        PSCENC =        68.45114304
  Ewald energy   TEWEN  =     -2564.34977613
  -Hartree energ DENC   =      -745.24129527
  -exchange      EXHF   =         0.00000000
  -V(xc)+E(xc)   XCENC  =       183.29052839
  PAW double counting   =      2494.22442938    -2541.12215007
  entropy T*S    EENTRO =         0.00000000
  eigenvalues    EBANDS =      -731.09315116
  atomic energy  EATOM  =      3769.08782378
  Solvation  Ediel_sol  =         0.00000000
  ---------------------------------------------------
  free energy    TOTEN  =       -66.75244804 eV

  energy without entropy =      -66.75244804  energy(sigma->0) =      -66.75244804


--------------------------------------------------------------------------------------------------------




--------------------------------------- Iteration      1(   5)  ---------------------------------------


     EDDAV:  cpu time    0.2861: real time    0.2865
 BZINTS: Fermi energy:  3.179644; 76.000000 electrons
         Band energy:-732.055457;  BLOECHL correction:  0.000000
       DOS:  cpu time    0.0010: real time    0.0010
    CHARGE:  cpu time    0.0205: real time    0.0205
    MIXING:  cpu time    0.0008: real time    0.0015
    --------------------------------------------
      LOOP:  cpu time    0.3084: real time    0.3095

 eigenvalue-minimisations  :  1440
 total energy-change (2. order) :-0.9623057E+00  (-0.9619829E+00)
 number of electron      76.0000040 magnetization 
 augmentation part       -2.0080187 magnetization 

 Broyden mixing:
  rms(total) = 0.26619E+01    rms(broyden)= 0.26617E+01
  rms(prec ) = 0.28740E+01
  weight for this iteration     100.00

 Free energy of the ion-electron system (eV)
  ---------------------------------------------------
  alpha Z        PSCENC =        68.45114304
  Ewald energy   TEWEN  =     -2564.34977613
  -Hartree energ DENC   =      -745.24129527
  -exchange      EXHF   =         0.00000000
  -V(xc)+E(xc)   XCENC  =       183.29052839
  PAW double counting   =      2494.22442938    -2541.12215007
  entropy T*S    EENTRO =         0.00000000
  eigenvalues    EBANDS =      -732.05545685
  atomic energy  EATOM  =      3769.08782378
  Solvation  Ediel_sol  =         0.00000000
  ---------------------------------------------------
  free energy    TOTEN  =       -67.71475372 eV

  energy without entropy =      -67.71475372  energy(sigma->0) =      -67.71475372


--------------------------------------------------------------------------------------------------------




--------------------------------------- Iteration      1(   6)  ---------------------------------------


    POTLOK:  cpu time    0.0044: real time    0.0047
    SETDIJ:  cpu time    0.0012: real time    0.0012
    EDDIAG:  cpu time    0.0642: real time    0.0731
  RMM-DIIS:  cpu time    0.1228: real time    0.1228
    ORTHCH:  cpu time    0.0088: real time    0.0088
 BZINTS: Fermi energy:  3.641440; 76.000000 electrons
         Band energy:-708.774557;  BLOECHL correction: -0.032726
       DOS:  cpu time    0.0045: real time    0.0045
    CHARGE:  cpu time    0.0194: real time    0.0194
    MIXING:  cpu time    0.0007: real time    0.0007
    --------------------------------------------
      LOOP:  cpu time    0.2260: real time    0.2352

 eigenvalue-minimisations  :  1182
 total energy-change (2. order) : 0.2189109E+01  (-0.6499438E+00)
 number of electron      76.0000040 magnetization 
 augmentation part       -1.9860987 magnetization 

 Broyden mixing:
  rms(total) = 0.16915E+01    rms(broyden)= 0.16915E+01
  rms(prec ) = 0.17551E+01
  weight for this iteration     100.00

 eigenvalues of (default mixing * dielectric matrix)
  average eigenvalue GAMMA=   2.4549
  2.4549

 Free energy of the ion-electron system (eV)
  ---------------------------------------------------
  alpha Z        PSCENC =        68.45114304
  Ewald energy   TEWEN  =     -2564.34977613
  -Hartree energ DENC   =      -766.80376672
  -exchange      EXHF   =         0.00000000
  -V(xc)+E(xc)   XCENC  =       185.15270366
  PAW double counting   =      4222.31803297    -4270.60724834
  entropy T*S    EENTRO =         0.00000000
  eigenvalues    EBANDS =      -708.77455711
  atomic energy  EATOM  =      3769.08782378
  Solvation  Ediel_sol  =         0.00000000
  ---------------------------------------------------
  free energy    TOTEN  =       -65.52564484 eV

  energy without entropy =      -65.52564484  energy(sigma->0) =      -65.52564484


--------------------------------------------------------------------------------------------------------




--------------------------------------- Iteration      1(   7)  ---------------------------------------


    POTLOK:  cpu time    0.0040: real time    0.0044
    SETDIJ:  cpu time    0.0015: real time    0.0015
    EDDIAG:  cpu time    0.0640: real time    0.0640
  RMM-DIIS:  cpu time    0.1291: real time    0.1291
    ORTHCH:  cpu time    0.0092: real time    0.0092
 BZINTS: Fermi energy:  3.790331; 76.000000 electrons
         Band energy:-687.743894;  BLOECHL correction: -0.104992
       DOS:  cpu time    0.0043: real time    0.0043
    CHARGE:  cpu time    0.0189: real time    0.0189
    MIXING:  cpu time    0.0006: real time    0.0006
    --------------------------------------------
      LOOP:  cpu time    0.2316: real time    0.2320

 eigenvalue-minimisations  :  1234
 total energy-change (2. order) : 0.3632921E+00  (-0.4177537E+00)
 number of electron      76.0000039 magnetization 
 augmentation part       -1.9606136 magnetization 

 Broyden mixing:
  rms(total) = 0.35547E+00    rms(broyden)= 0.35542E+00
  rms(prec ) = 0.39012E+00
  weight for this iteration     100.00

 eigenvalues of (default mixing * dielectric matrix)
  average eigenvalue GAMMA=   1.9211
  1.4830  2.3592

 Free energy of the ion-electron system (eV)
  ---------------------------------------------------
  alpha Z        PSCENC =        68.45114304
  Ewald energy   TEWEN  =     -2564.34977613
  -Hartree energ DENC   =      -788.46085576
  -exchange      EXHF   =         0.00000000
  -V(xc)+E(xc)   XCENC  =       187.08141527
  PAW double counting   =      7704.66526928    -7753.89347871
  entropy T*S    EENTRO =         0.00000000
  eigenvalues    EBANDS =      -687.74389353
  atomic energy  EATOM  =      3769.08782378
  Solvation  Ediel_sol  =         0.00000000
  ---------------------------------------------------
  free energy    TOTEN  =       -65.16235275 eV

  energy without entropy =      -65.16235275  energy(sigma->0) =      -65.16235275


--------------------------------------------------------------------------------------------------------




--------------------------------------- Iteration      1(   8)  ---------------------------------------


    POTLOK:  cpu time    0.0041: real time    0.0044
    SETDIJ:  cpu time    0.0014: real time    0.0014
    EDDIAG:  cpu time    0.0661: real time    0.0661
  RMM-DIIS:  cpu time    0.1559: real time    0.1559
    ORTHCH:  cpu time    0.0092: real time    0.0092
 BZINTS: Fermi energy:  3.780544; 76.000000 electrons
         Band energy:-689.069116;  BLOECHL correction: -0.013286
       DOS:  cpu time    0.0042: real time    0.0042
    CHARGE:  cpu time    0.0187: real time    0.0187
    MIXING:  cpu time    0.0008: real time    0.0008
    --------------------------------------------
      LOOP:  cpu time    0.2603: real time    0.2607

 eigenvalue-minimisations  :  1399
 total energy-change (2. order) : 0.2150092E+00  (-0.2107854E-01)
 number of electron      76.0000039 magnetization 
 augmentation part       -1.9845252 magnetization 

 Broyden mixing:
  rms(total) = 0.95582E-01    rms(broyden)= 0.95573E-01
  rms(prec ) = 0.11393E+00
  weight for this iteration     100.00

 eigenvalues of (default mixing * dielectric matrix)
  average eigenvalue GAMMA=   1.6562
  0.9266  2.2657  1.7762

 Free energy of the ion-electron system (eV)
  ---------------------------------------------------
  alpha Z        PSCENC =        68.45114304
  Ewald energy   TEWEN  =     -2564.34977613
  -Hartree energ DENC   =      -787.12487404
  -exchange      EXHF   =         0.00000000
  -V(xc)+E(xc)   XCENC  =       187.05373879
  PAW double counting   =      8286.04941505    -8335.04569800
  entropy T*S    EENTRO =         0.00000000
  eigenvalues    EBANDS =      -689.06911599
  atomic energy  EATOM  =      3769.08782378
  Solvation  Ediel_sol  =         0.00000000
  ---------------------------------------------------
  free energy    TOTEN  =       -64.94734350 eV

  energy without entropy =      -64.94734350  energy(sigma->0) =      -64.94734350


--------------------------------------------------------------------------------------------------------




--------------------------------------- Iteration      1(   9)  ---------------------------------------


    POTLOK:  cpu time    0.0042: real time    0.0045
    SETDIJ:  cpu time    0.0013: real time    0.0013
    EDDIAG:  cpu time    0.1117: real time    0.1125
  RMM-DIIS:  cpu time    6.3542: real time    6.3872
    ORTHCH:  cpu time    0.6242: real time    0.6743
 BZINTS: Fermi energy:  3.794229; 76.000000 electrons
         Band energy:-689.839530;  BLOECHL correction: -0.042267
       DOS:  cpu time    0.0047: real time    0.0132
    CHARGE:  cpu time    0.4951: real time    0.6929
    MIXING:  cpu time    0.1467: real time    0.1803
    --------------------------------------------
      LOOP:  cpu time    7.7423: real time    8.0664

 eigenvalue-minimisations  :  1438
 total energy-change (2. order) :-0.2199841E-01  (-0.6758299E-02)
 number of electron      76.0000039 magnetization 
 augmentation part       -2.0070224 magnetization 

 Broyden mixing:
  rms(total) = 0.34638E-01    rms(broyden)= 0.34592E-01
  rms(prec ) = 0.39525E-01
  weight for this iteration     100.00

 eigenvalues of (default mixing * dielectric matrix)
  average eigenvalue GAMMA=   1.6209
  2.3139  1.3246  1.4225  1.4225

 Free energy of the ion-electron system (eV)
  ---------------------------------------------------
  alpha Z        PSCENC =        68.45114304
  Ewald energy   TEWEN  =     -2564.34977613
  -Hartree energ DENC   =      -786.39946306
  -exchange      EXHF   =         0.00000000
  -V(xc)+E(xc)   XCENC  =       187.03129744
  PAW double counting   =      8260.12713931    -8309.07797606
  entropy T*S    EENTRO =         0.00000000
  eigenvalues    EBANDS =      -689.83953024
  atomic energy  EATOM  =      3769.08782378
  Solvation  Ediel_sol  =         0.00000000
  ---------------------------------------------------
  free energy    TOTEN  =       -64.96934192 eV

  energy without entropy =      -64.96934192  energy(sigma->0) =      -64.96934192


--------------------------------------------------------------------------------------------------------




--------------------------------------- Iteration      1(  10)  ---------------------------------------


    POTLOK:  cpu time    0.5547: real time    0.6165
    SETDIJ:  cpu time    0.0987: real time    0.1055
