 vasp.5.4.4.18Apr17-6-g9f103f2a35 (build Feb 28 2020 14:15:47) complex          
  
 executed on             LinuxIFC date 2022.04.28  03:22:52
 running on   64 total cores
 distrk:  each k-point on   64 cores,    1 groups
 distr:  one band on NCORES_PER_BAND=  16 cores,    4 groups


--------------------------------------------------------------------------------------------------------


 INCAR:
 POTCAR:    PAW P 26Mar2009                       
 POTCAR:    PAW S 27Mar2009                       
 POTCAR:    PAW Li_sv 10Sep2004                   
 POTCAR:    PAW P 26Mar2009                       
   VRHFIN =P : s2p3                                                             
   LEXCH  = CA                                                                  
   EATOM  =   176.5121 eV,   12.9733 Ry                                         
                                                                                
   TITEL  = PAW P 26Mar2009                                                     
   LULTRA =        F    use ultrasoft PP ?                                      
   IUNSCR =        1    unscreen: 0-lin 1-nonlin 2-no                           
   RPACOR =    1.500    partial core radius                                     
   POMASS =   30.974; ZVAL   =    5.000    mass and valenz                      
   RCORE  =    1.900    outmost cutoff radius                                   
   RWIGS  =    2.330; RWIGS  =    1.233    wigner-seitz radius (au A)           
   ENMAX  =  255.155; ENMIN  =  191.366 eV                                      
   ICORE  =        2    local potential                                         
   LCOR   =        T    correct aug charges                                     
   LPAW   =        T    paw PP                                                  
   EAUG   =  342.924                                                            
   DEXC   =    0.000                                                            
   RMAX   =    1.935    core radius for proj-oper                               
   RAUG   =    1.300    factor for augmentation sphere                          
   RDEP   =    1.931    radius for radial grids                                 
   RDEPT  =    1.780    core radius for aug-charge                              
                                                                                
   Atomic configuration                                                         
    6 entries                                                                   
     n  l   j            E        occ.                                          
     1  0  0.50     -2072.7761   2.0000                                         
     2  0  0.50      -172.9483   2.0000                                         
     2  1  1.50      -124.4644   6.0000                                         
     3  0  0.50       -14.0086   2.0000                                         
     3  1  0.50        -5.6037   3.0000                                         
     3  2  1.50        -6.8029   0.0000                                         
   Description                                                                  
     l       E           TYP  RCUT    TYP  RCUT                                 
     0    -14.0086211     23  1.900                                             
     0    -11.8189335     23  1.900                                             
     1     -5.6037292     23  1.900                                             
     1     -0.3527308     23  1.900                                             
     2     -6.8029130     23  1.900                                             
  local pseudopotential read in
  partial core-charges read in
  partial kinetic energy density read in
  atomic valenz-charges read in
  non local Contribution for L=           0  read in
    real space projection operators read in
  non local Contribution for L=           0  read in
    real space projection operators read in
  non local Contribution for L=           1  read in
    real space projection operators read in
  non local Contribution for L=           1  read in
    real space projection operators read in
    PAW grid and wavefunctions read in
 
   number of l-projection  operators is LMAX  =           4
   number of lm-projection operators is LMMAX =           8
 
 POTCAR:    PAW S 27Mar2009                       
   VRHFIN =S : s2p4                                                             
   LEXCH  = CA                                                                  
   EATOM  =   277.3745 eV,   20.3864 Ry                                         
                                                                                
   TITEL  = PAW S 27Mar2009                                                     
   LULTRA =        F    use ultrasoft PP ?                                      
   IUNSCR =        1    unscreen: 0-lin 1-nonlin 2-no                           
   RPACOR =    1.500    partial core radius                                     
   POMASS =   32.066; ZVAL   =    6.000    mass and valenz                      
   RCORE  =    1.900    outmost cutoff radius                                   
   RWIGS  =    2.200; RWIGS  =    1.164    wigner-seitz radius (au A)           
   ENMAX  =  258.602; ENMIN  =  193.952 eV                                      
   ICORE  =        2    local potential                                         
   LCOR   =        T    correct aug charges                                     
   LPAW   =        T    paw PP                                                  
   EAUG   =  335.092                                                            
   DEXC   =    0.000                                                            
   RMAX   =    1.942    core radius for proj-oper                               
   RAUG   =    1.300    factor for augmentation sphere                          
   RDEP   =    1.954    radius for radial grids                                 
   RDEPT  =    1.744    core radius for aug-charge                              
                                                                                
   Atomic configuration                                                         
    6 entries                                                                   
     n  l   j            E        occ.                                          
     1  0  0.50     -2393.1495   2.0000                                         
     2  0  0.50      -210.5411   2.0000                                         
     2  1  1.50      -156.4410   6.0000                                         
     3  0  0.50       -17.2664   2.0000                                         
     3  1  0.50        -7.1129   4.0000                                         
     3  2  1.50        -8.1635   0.0000                                         
   Description                                                                  
     l       E           TYP  RCUT    TYP  RCUT                                 
     0    -17.2664422     23  1.900                                             
     0    -15.8420823     23  1.900                                             
     1     -7.1129072     23  1.900                                             
     1     -2.8398274     23  1.900                                             
     2     -8.1634956     23  1.900                                             
  local pseudopotential read in
  partial core-charges read in
  partial kinetic energy density read in
  atomic valenz-charges read in
  non local Contribution for L=           0  read in
    real space projection operators read in
  non local Contribution for L=           0  read in
    real space projection operators read in
  non local Contribution for L=           1  read in
    real space projection operators read in
  non local Contribution for L=           1  read in
    real space projection operators read in
    PAW grid and wavefunctions read in
 
   number of l-projection  operators is LMAX  =           4
   number of lm-projection operators is LMMAX =           8
 
 POTCAR:    PAW Li_sv 10Sep2004                   
   VRHFIN =Li: 1s2s                                                             
   LEXCH  = CA                                                                  
   EATOM  =   199.5738 eV,   14.6683 Ry                                         
                                                                                
   TITEL  = PAW Li_sv 10Sep2004                                                 
   LULTRA =        F    use ultrasoft PP ?                                      
   IUNSCR =        0    unscreen: 0-lin 1-nonlin 2-no                           
   RPACOR =    0.000    partial core radius                                     
   POMASS =    7.010; ZVAL   =    3.000    mass and valenz                      
   RCORE  =    1.700    outmost cutoff radius                                   
   RWIGS  =    2.050; RWIGS  =    1.085    wigner-seitz radius (au A)           
   ENMAX  =  498.387; ENMIN  =  373.790 eV                                      
   ICORE  =        2    local potential                                         
   LCOR   =        T    correct aug charges                                     
   LPAW   =        T    paw PP                                                  
   EAUG   =  628.945                                                            
   RMAX   =    1.732    core radius for proj-oper                               
   RAUG   =    1.300    factor for augmentation sphere                          
   RDEP   =    1.728    radius for radial grids                                 
   RDEPT  =    1.329    core radius for aug-charge                              
                                                                                
   Atomic configuration                                                         
    4 entries                                                                   
     n  l   j            E        occ.                                          
     1  0  0.50       -51.0884   2.0000                                         
     2  0  0.50        -2.8766   1.0000                                         
     2  1  0.50        -2.8708   0.0000                                         
     3  2  1.50        -1.3606   0.0000                                         
   Description                                                                  
     l       E           TYP  RCUT    TYP  RCUT                                 
     0    -51.0884324     23  1.400                                             
     0     -2.8766458     23  1.700                                             
     1     -2.8708293     23  1.400                                             
     2     -1.3605826     23  1.400                                             
  local pseudopotential read in
  atomic valenz-charges read in
  non local Contribution for L=           0  read in
    real space projection operators read in
  non local Contribution for L=           0  read in
    real space projection operators read in
  non local Contribution for L=           1  read in
    real space projection operators read in
    PAW grid and wavefunctions read in
 
   number of l-projection  operators is LMAX  =           3
   number of lm-projection operators is LMMAX =           5
 
 Optimization of the real space projectors (new method)

 maximal supplied QI-value         = 19.84
 optimisation between [QCUT,QGAM] = [ 10.32, 20.83] = [ 29.81,121.55] Ry 
 Optimized for a Real-space Cutoff    1.39 Angstroem

   l    n(q)    QCUT    max X(q) W(low)/X(q) W(high)/X(q)  e(spline) 
   0      9    10.318   158.476    0.64E-04    0.80E-04    0.60E-07
   0      9    10.318   128.097    0.63E-04    0.79E-04    0.60E-07
   1      8    10.318    73.217    0.18E-03    0.19E-03    0.20E-06
   1      8    10.318    48.248    0.18E-03    0.19E-03    0.19E-06
 Optimization of the real space projectors (new method)

 maximal supplied QI-value         = 19.84
 optimisation between [QCUT,QGAM] = [ 10.32, 20.83] = [ 29.81,121.55] Ry 
 Optimized for a Real-space Cutoff    1.39 Angstroem

   l    n(q)    QCUT    max X(q) W(low)/X(q) W(high)/X(q)  e(spline) 
   0      9    10.318   180.455    0.73E-04    0.81E-04    0.62E-07
   0      9    10.318   157.733    0.72E-04    0.81E-04    0.62E-07
   1      8    10.318    66.201    0.18E-03    0.20E-03    0.20E-06
   1      8    10.318    49.617    0.18E-03    0.20E-03    0.20E-06
 Optimization of the real space projectors (new method)

 maximal supplied QI-value         = 22.11
 optimisation between [QCUT,QGAM] = [ 10.39, 20.78] = [ 30.24,120.96] Ry 
 Optimized for a Real-space Cutoff    1.20 Angstroem

   l    n(q)    QCUT    max X(q) W(low)/X(q) W(high)/X(q)  e(spline) 
   0      7    10.392    10.443    0.77E-04    0.41E-05    0.30E-07
   0      7    10.392     8.514    0.20E-03    0.36E-04    0.67E-07
   1      7    10.392     5.406    0.20E-03    0.20E-03    0.12E-06
  PAW P 26Mar2009                       :
 energy of atom  1       EATOM= -176.5121
 kinetic energy error for atom=    0.0021 (will be added to EATOM!!)
  PAW S 27Mar2009                       :
 energy of atom  2       EATOM= -277.3745
 kinetic energy error for atom=    0.0041 (will be added to EATOM!!)
  PAW Li_sv 10Sep2004                   :
 energy of atom  3       EATOM= -199.5738
 kinetic energy error for atom=    0.0564 (will be added to EATOM!!)
 
 
 POSCAR: Good luck                               
  positions in cartesian coordinates
  No initial velocities read in
 exchange correlation table for  LEXCH =        2
   RHO(1)=    0.500       N(1)  =     2000
   RHO(2)=  100.500       N(2)  =     4000
 


--------------------------------------------------------------------------------------------------------


 ion  position               nearest neighbor table
   1  0.000  0.682  0.406-   7 2.00   9 2.00   3 2.00   6 2.00
   2  0.500  0.318  0.906-   8 2.00  10 2.00   4 2.00   5 2.00
   3  0.217  0.828  0.292-   1 2.00  14 2.34  13 2.39  12 2.48
   4  0.283  0.172  0.792-   2 2.00  13 2.34  14 2.39  11 2.48
   5  0.717  0.172  0.792-   2 2.00  16 2.34  15 2.39  11 2.48
   6  0.783  0.828  0.292-   1 2.00  15 2.34  16 2.39  12 2.48
   7  0.000  0.688  0.738-   1 2.00  14 2.33  15 2.33  11 2.36
   8  0.500  0.312  0.238-   2 2.00  13 2.33  16 2.33  12 2.36
   9  0.000  0.385  0.301-   1 2.00  13 2.31  16 2.31  11 2.46
  10  0.500  0.615  0.801-   2 2.00  14 2.31  15 2.31  12 2.46
  11  1.000  0.349  0.893-   7 2.36   9 2.46   5 2.48   4 2.48
  12  0.500  0.651  0.393-   8 2.36  10 2.46   6 2.48   3 2.48
  13  0.242  0.185  0.406-   9 2.31   8 2.33   4 2.34   3 2.39
  14  0.258  0.815  0.906-  10 2.31   7 2.33   3 2.34   4 2.39
  15  0.742  0.815  0.906-  10 2.31   7 2.33   6 2.34   5 2.39
  16  0.758  0.185  0.406-   9 2.31   8 2.33   5 2.34   6 2.39
 
  Warning from LATTYP: Monoclinic adjustement (A1->A3, A2->A1, A3->A2)!
  Warning from LATTYP: Got some problem with cell dimensions!
  Tried to take original basis but could not verify dimensions!
  LATTYP: Found a simple monoclinic cell.
 ALAT       =     9.8627181782
 B/A-ratio  =     0.6096973627
 C/A-ratio  =     1.6560347292
 COS(beta)  =    -0.9545784827
  
  Lattice vectors:
  
 A1 = (  -7.5165487725,  -6.3855073732,  -0.0000038272)
 A2 = (  -0.0000032372,   0.0000002114,  -6.0132732624)
 A3 = (  15.0330840259,   6.3854051321,   0.0000078782)


Analysis of symmetry for initial positions (statically):
=====================================================================
 Subroutine PRICEL returns:
 Original cell was already a primitive cell.
 

 Routine SETGRP: Setting up the symmetry group for a 
 simple monoclinic supercell.


 Subroutine GETGRP returns: Found  2 space group operations
 (whereof  1 operations were pure point group operations)
 out of a pool of  4 trial point group operations.


The static configuration has the point symmetry C_1 .
 The point group associated with its full space group is C_2 .


Analysis of symmetry for dynamics (positions and initial velocities):
=====================================================================
 Subroutine PRICEL returns:
 Original cell was already a primitive cell.
 

 Routine SETGRP: Setting up the symmetry group for a 
 simple monoclinic supercell.


 Subroutine GETGRP returns: Found  2 space group operations
 (whereof  1 operations were pure point group operations)
 out of a pool of  4 trial point group operations.


The dynamic configuration has the point symmetry C_1 .
 The point group associated with its full space group is C_2 .


 Subroutine INISYM returns: Found  2 space group operations
 (whereof  1 operations are pure point group operations),
 and found     1 'primitive' translations

 
 
 KPOINTS: Automatic mesh                          

Automatic generation of k-mesh.
Space group operators:
 irot       det(A)        alpha          n_x          n_y          n_z        tau_x        tau_y        tau_z
    1     1.000000     0.000000     1.000000     0.000000     0.000000     0.000000     0.000000     0.000000
    2     1.000000   180.000000    -0.000001     0.000000     1.000000     0.500000    -0.000000    -0.500000
 
 Subroutine IBZKPT returns following result:
 ===========================================
 
 Found     16 irreducible k-points:
 
 Following reciprocal coordinates:
            Coordinates               Weight
  0.125000  0.125000  0.125000      4.000000
  0.375000  0.125000  0.125000      4.000000
 -0.375000  0.125000  0.125000      4.000000
 -0.125000  0.125000  0.125000      4.000000
  0.125000  0.375000  0.125000      4.000000
  0.375000  0.375000  0.125000      4.000000
 -0.375000  0.375000  0.125000      4.000000
 -0.125000  0.375000  0.125000      4.000000
  0.125000  0.125000  0.375000      4.000000
  0.375000  0.125000  0.375000      4.000000
 -0.375000  0.125000  0.375000      4.000000
 -0.125000  0.125000  0.375000      4.000000
  0.125000  0.375000  0.375000      4.000000
  0.375000  0.375000  0.375000      4.000000
 -0.375000  0.375000  0.375000      4.000000
 -0.125000  0.375000  0.375000      4.000000
 
 Following cartesian coordinates:
            Coordinates               Weight
  0.016630  0.019575  0.020787      4.000000
  0.049890  0.019575  0.020787      4.000000
 -0.049890  0.019575  0.020787      4.000000
 -0.016630  0.019575  0.020787      4.000000
  0.016631  0.058726  0.020787      4.000000
  0.049891  0.058726  0.020787      4.000000
 -0.049889  0.058726  0.020787      4.000000
 -0.016629  0.058726  0.020787      4.000000
  0.016630  0.019575  0.062362      4.000000
  0.049890  0.019575  0.062362      4.000000
 -0.049890  0.019575  0.062362      4.000000
 -0.016630  0.019575  0.062362      4.000000
  0.016631  0.058726  0.062362      4.000000
  0.049891  0.058726  0.062362      4.000000
 -0.049889  0.058726  0.062362      4.000000
 -0.016629  0.058726  0.062362      4.000000
 
 TETIRR: Found    172 inequivalent tetrahedra from      384


--------------------------------------------------------------------------------------------------------




 Dimension of arrays:
   k-points           NKPTS =     16   k-points in BZ     NKDIM =     16   number of bands    NBANDS=     48
   number of dos      NEDOS =    301   number of ions     NIONS =     16
   non local maximal  LDIM  =      4   non local SUM 2l+1 LMDIM =      8
   total plane-waves  NPLWV =  96000
   max r-space proj   IRMAX =   3773   max aug-charges    IRDMAX=  10677
   dimension x,y,z NGX =    50 NGY =   48 NGZ =   40
   dimension x,y,z NGXF=   100 NGYF=   96 NGZF=   80
   support grid    NGXF=   100 NGYF=   96 NGZF=   80
   ions per type =               2   8   6
   NGX,Y,Z   is equivalent  to a cutoff of  11.06, 12.50, 11.06 a.u.
   NGXF,Y,Z  is equivalent  to a cutoff of  22.12, 24.99, 22.12 a.u.

 SYSTEM =  unknown system                          
 POSCAR =  Good luck                               

 Startparameter for this run:
   NWRITE =      2    write-flag & timer
   PREC   = accura    normal or accurate (medium, high low for compatibility)
   ISTART =      0    job   : 0-new  1-cont  2-samecut
   ICHARG =      2    charge: 1-file 2-atom 10-const
   ISPIN  =      1    spin polarized calculation?
   LNONCOLLINEAR =      F non collinear calculations
   LSORBIT =      F    spin-orbit coupling
   INIWAV =      1    electr: 0-lowe 1-rand  2-diag
   LASPH  =      F    aspherical Exc in radial PAW
   METAGGA=      F    non-selfconsistent MetaGGA calc.

 Electronic Relaxation 1
   ENCUT  =  420.0 eV  30.87 Ry    5.56 a.u.  12.56 10.67 10.05*2*pi/ulx,y,z
   ENINI  =  420.0     initial cutoff
   ENAUG  =  628.9 eV  augmentation charge cutoff
   NELM   =    100;   NELMIN=  2; NELMDL= -5     # of ELM steps 
   EDIFF  = 0.2E-04   stopping-criterion for ELM
   LREAL  =      T    real-space projection
   NLSPLINE    = F    spline interpolate recip. space projectors
   LCOMPAT=      F    compatible to vasp.4.4
   GGA_COMPAT  = T    GGA compatible to vasp.4.4-vasp.4.6
   LMAXPAW     = -100 max onsite density
   LMAXMIX     =    2 max onsite mixed and CHGCAR
   VOSKOWN=      0    Vosko Wilk Nusair interpolation
   ROPT   =   -0.00025  -0.00025  -0.00025
 Ionic relaxation
   EDIFFG = 0.2E-03   stopping-criterion for IOM
   NSW    =    100    number of steps for IOM
   NBLOCK =      1;   KBLOCK =    100    inner block; outer block 
   IBRION =      2    ionic relax: 0-MD 1-quasi-New 2-CG
   NFREE  =      1    steps in history (QN), initial steepest desc. (CG)
   ISIF   =      3    stress and relaxation
   IWAVPR =     11    prediction:  0-non 1-charg 2-wave 3-comb
   ISYM   =      2    0-nonsym 1-usesym 2-fastsym
   LCORR  =      T    Harris-Foulkes like correction to forces

   POTIM  = 0.5000    time-step for ionic-motion
   TEIN   =    0.0    initial temperature
   TEBEG  =    0.0;   TEEND  =   0.0 temperature during run
   SMASS  =  -3.00    Nose mass-parameter (am)
   estimated Nose-frequenzy (Omega)   =  0.10E-29 period in steps =****** mass=  -0.129E-26a.u.
   SCALEE = 1.0000    scale energy and forces
   NPACO  =    256;   APACO  = 16.0  distance and # of slots for P.C.
   PSTRESS=    0.0 pullay stress

  Mass of Ions in am
   POMASS =  30.97 32.07  7.01
  Ionic Valenz
   ZVAL   =   5.00  6.00  3.00
  Atomic Wigner-Seitz radii
   RWIGS  =  -1.00 -1.00 -1.00
  virtual crystal weights 
   VCA    =   1.00  1.00  1.00
   NELECT =      76.0000    total number of electrons
   NUPDOWN=      -1.0000    fix difference up-down

 DOS related values:
   EMIN   =  10.00;   EMAX   =-10.00  energy-range for DOS
   EFERMI =   0.00
   ISMEAR =    -5;   SIGMA  =   0.20  broadening in eV -4-tet -1-fermi 0-gaus

 Electronic relaxation 2 (details)
   IALGO  =     68    algorithm
   LDIAG  =      T    sub-space diagonalisation (order eigenvalues)
   LSUBROT=      F    optimize rotation matrix (better conditioning)
   TURBO    =      0    0=normal 1=particle mesh
   IRESTART =      0    0=no restart 2=restart with 2 vectors
   NREBOOT  =      0    no. of reboots
   NMIN     =      0    reboot dimension
   EREF     =   0.00    reference energy to select bands
   IMIX   =      4    mixing-type and parameters
     AMIX     =   0.40;   BMIX     =  1.00
     AMIX_MAG =   1.60;   BMIX_MAG =  1.00
     AMIN     =   0.10
     WC   =   100.;   INIMIX=   1;  MIXPRE=   1;  MAXMIX= -45

 Intra band minimization:
   WEIMIN = 0.0010     energy-eigenvalue tresh-hold
   EBREAK =  0.10E-06  absolut break condition
   DEPER  =   0.30     relativ break condition  

   TIME   =   0.40     timestep for ELM

  volume/ion in A,a.u.               =      18.04       121.73
  Fermi-wavevector in a.u.,A,eV,Ry     =   1.049306  1.982902 14.980615  1.101044
  Thomas-Fermi vector in A             =   2.184264
 
 Write flags
   LWAVE        =      F    write WAVECAR
   LDOWNSAMPLE  =      F    k-point downsampling of WAVECAR
   LCHARG       =      F    write CHGCAR
   LVTOT        =      F    write LOCPOT, total local potential
   LVHAR        =      F    write LOCPOT, Hartree potential only
   LELF         =      F    write electronic localiz. function (ELF)
   LORBIT       =      0    0 simple, 1 ext, 2 COOP (PROOUT), +10 PAW based schemes


 Dipole corrections
   LMONO  =      F    monopole corrections only (constant potential shift)
   LDIPOL =      F    correct potential (dipole corrections)
   IDIPOL =      0    1-x, 2-y, 3-z, 4-all directions 
   EPSILON=  1.0000000 bulk dielectric constant

 Exchange correlation treatment:
   GGA     =    --    GGA type
   LEXCH   =     2    internal setting for exchange type
   VOSKOWN=      0    Vosko Wilk Nusair interpolation
   LHFCALC =     F    Hartree Fock is set to
   LHFONE  =     F    Hartree Fock one center treatment
   AEXX    =    0.0000 exact exchange contribution

 Linear response parameters
   LEPSILON=     F    determine dielectric tensor
   LRPA    =     F    only Hartree local field effects (RPA)
   LNABLA  =     F    use nabla operator in PAW spheres
   LVEL    =     F    velocity operator in full k-point grid
   LINTERFAST=   F  fast interpolation
   KINTER  =     0    interpolate to denser k-point grid
   CSHIFT  =0.1000    complex shift for real part using Kramers Kronig
   OMEGAMAX=  -1.0    maximum frequency
   DEG_THRESHOLD= 0.2000000E-02 threshold for treating states as degnerate
   RTIME   =   -0.100 relaxation time in fs
  (WPLASMAI=    0.000 imaginary part of plasma frequency in eV, 0.658/RTIME)
   DFIELD  = 0.0000000 0.0000000 0.0000000 field for delta impulse in time
 
 Orbital magnetization related:
   ORBITALMAG=     F  switch on orbital magnetization
   LCHIMAG   =     F  perturbation theory with respect to B field
   DQ        =  0.001000  dq finite difference perturbation B field
   LLRAUG    =     F  two centre corrections for induced B field



--------------------------------------------------------------------------------------------------------


 conjugate gradient relaxation of ions
 charge density and potential will be updated during run
 non-spin polarized calculation
 RMM-DIIS sequential band-by-band and
  variant of blocked Davidson during initial phase
 perform sub-space diagonalisation
    before iterative eigenvector-optimisation
 modified Broyden-mixing scheme, WC =      100.0
 initial mixing is a Kerker type mixing with AMIX =  0.4000 and BMIX =      1.0000
 Hartree-type preconditioning will be used
 using additional bands           10
 real space projection scheme for non local part
 use partial core corrections
 calculate Harris-corrections to forces 
   (improved forces if not selfconsistent)
 use of overlap-Matrix (Vanderbilt PP)
 Fermi weights with tetrahedron method with Bloechl corrections


--------------------------------------------------------------------------------------------------------


  energy-cutoff  :      420.00
  volume of cell :      288.62
      direct lattice vectors                 reciprocal lattice vectors
     7.516535253 -0.000102241  0.000004051     0.133040020 -0.000000282 -0.000000072
     0.000013519  6.385609614 -0.000000224     0.000002130  0.156602120  0.000000006
     0.000003237 -0.000000211  6.013273262    -0.000000090  0.000000006  0.166298779

  length of vectors
     7.516535254  6.385609614  6.013273262     0.133040020  0.156602120  0.166298779


 
 k-points in units of 2pi/SCALE and weight: Automatic mesh                          
   0.01663026  0.01957523  0.02078734       0.062
   0.04989026  0.01957516  0.02078732       0.062
  -0.04988975  0.01957537  0.02078737       0.062
  -0.01662975  0.01957530  0.02078736       0.062
   0.01663079  0.05872576  0.02078734       0.062
   0.04989080  0.05872569  0.02078732       0.062
  -0.04988922  0.05872590  0.02078738       0.062
  -0.01662921  0.05872583  0.02078736       0.062
   0.01663024  0.01957523  0.06236203       0.062
   0.04989024  0.01957516  0.06236202       0.062
  -0.04988977  0.01957537  0.06236207       0.062
  -0.01662977  0.01957530  0.06236205       0.062
   0.01663077  0.05872576  0.06236204       0.062
   0.04989077  0.05872569  0.06236202       0.062
  -0.04988924  0.05872590  0.06236207       0.062
  -0.01662924  0.05872583  0.06236205       0.062
 
 k-points in reciprocal lattice and weights: Automatic mesh                          
   0.12500000  0.12500000  0.12500000       0.062
   0.37500000  0.12500000  0.12500000       0.062
  -0.37500000  0.12500000  0.12500000       0.062
  -0.12500000  0.12500000  0.12500000       0.062
   0.12500000  0.37500000  0.12500000       0.062
   0.37500000  0.37500000  0.12500000       0.062
  -0.37500000  0.37500000  0.12500000       0.062
  -0.12500000  0.37500000  0.12500000       0.062
   0.12500000  0.12500000  0.37500000       0.062
   0.37500000  0.12500000  0.37500000       0.062
  -0.37500000  0.12500000  0.37500000       0.062
  -0.12500000  0.12500000  0.37500000       0.062
   0.12500000  0.37500000  0.37500000       0.062
   0.37500000  0.37500000  0.37500000       0.062
  -0.37500000  0.37500000  0.37500000       0.062
  -0.12500000  0.37500000  0.37500000       0.062
 
 position of ions in fractional coordinates (direct lattice) 
   0.00000405  0.68187578  0.40578784
   0.49999595  0.31812422  0.90578784
   0.21725738  0.82756695  0.29203792
   0.28274262  0.17243305  0.79203792
   0.71725738  0.17243305  0.79203792
   0.78274262  0.82756695  0.29203792
   0.00000390  0.68767466  0.73832854
   0.49999610  0.31232534  0.23832854
   0.00000463  0.38470151  0.30074668
   0.49999537  0.61529849  0.80074668
   0.99999648  0.34856713  0.89330313
   0.50000352  0.65143287  0.39330313
   0.24238658  0.18458086  0.40641080
   0.25761342  0.81541914  0.90641080
   0.74238658  0.81541914  0.90641080
   0.75761342  0.18458086  0.40641080
 
 position of ions in cartesian coordinates  (Angst):
   0.00004100  4.35419243  2.44011300
   3.75824439  2.03136578  5.44675174
   1.63303493  5.28449719  1.75610449
   2.12524973  1.10106108  4.76274153
   5.39129531  1.10101665  4.76274329
   5.88352459  5.28443937  1.75610678
   0.00004100  4.39122179  4.43977111
   3.75824330  1.99433650  1.43313658
   0.00004100  2.45655357  1.80847191
   3.75824371  3.92900469  4.81511051
   7.51651640  2.22571119  5.37167977
   3.75830416  4.15974479  2.36504105
   1.82191112  1.17863646  2.44386015
   1.93637428  5.20692176  5.45049670
   5.58018889  5.20687220  5.45049867
   5.69463176  1.17858378  2.44386224
 


--------------------------------------------------------------------------------------------------------


 k-point  1 :   0.1250 0.1250 0.1250  plane waves:    5646
 k-point  2 :   0.3750 0.1250 0.1250  plane waves:    5640
 k-point  3 :  -0.3750 0.1250 0.1250  plane waves:    5640
 k-point  4 :  -0.1250 0.1250 0.1250  plane waves:    5646
 k-point  5 :   0.1250 0.3750 0.1250  plane waves:    5632
 k-point  6 :   0.3750 0.3750 0.1250  plane waves:    5633
 k-point  7 :  -0.3750 0.3750 0.1250  plane waves:    5633
 k-point  8 :  -0.1250 0.3750 0.1250  plane waves:    5632
 k-point  9 :   0.1250 0.1250 0.3750  plane waves:    5655
 k-point 10 :   0.3750 0.1250 0.3750  plane waves:    5635
 k-point 11 :  -0.3750 0.1250 0.3750  plane waves:    5635
 k-point 12 :  -0.1250 0.1250 0.3750  plane waves:    5655
 k-point 13 :   0.1250 0.3750 0.3750  plane waves:    5653
 k-point 14 :   0.3750 0.3750 0.3750  plane waves:    5641
 k-point 15 :  -0.3750 0.3750 0.3750  plane waves:    5641
 k-point 16 :  -0.1250 0.3750 0.3750  plane waves:    5653

 maximum and minimum number of plane-waves per node :       365      343

 maximum number of plane-waves:      5655
 maximum index in each direction: 
   IXMAX=   12   IYMAX=   10   IZMAX=    9
   IXMIN=  -12   IYMIN=  -11   IZMIN=  -10


 real space projection operators:
  total allocation   :       2792.03 KBytes
  max/ min on nodes  :        230.33        155.86


 parallel 3D FFT for wavefunctions:
    minimum data exchange during FFTs selected (reduces bandwidth)
 parallel 3D FFT for charge:
    minimum data exchange during FFTs selected (reduces bandwidth)


 total amount of memory used by VASP MPI-rank0    34472. kBytes
=======================================================================

   base      :      30000. kBytes
   nonlr-proj:       1295. kBytes
   fftplans  :        733. kBytes
   grid      :       1311. kBytes
   one-center:          3. kBytes
   wavefun   :       1130. kBytes
 
     INWAV:  cpu time    0.0000: real time    0.0003
 Broyden mixing: mesh for mixing (old mesh)
   NGX = 25   NGY = 21   NGZ = 21
  (NGX  =100   NGY  = 96   NGZ  = 80)
  gives a total of  11025 points

 initial charge density was supplied:
 charge density of overlapping atoms calculated
 number of electron      76.0000000 magnetization 
 keeping initial charge density in first step


--------------------------------------------------------------------------------------------------------


 Maximum index for non-local projection operator          580
 Maximum index for augmentation-charges          590 (set IRDMAX)


--------------------------------------------------------------------------------------------------------


 First call to EWALD:  gamma=   0.268
 Maximum number of real-space cells 2x 3x 3
 Maximum number of reciprocal cells 3x 3x 3

    FEWALD:  cpu time    0.0018: real time    0.0018


--------------------------------------- Iteration      1(   1)  ---------------------------------------


    POTLOK:  cpu time    0.0069: real time    0.0146
    SETDIJ:  cpu time    0.0034: real time    0.0102
     EDDAV:  cpu time    0.3686: real time    0.4037
 BZINTS: Fermi energy: 14.924450; 76.000000 electrons
         Band energy:-123.514616;  BLOECHL correction: -0.055584
       DOS:  cpu time    0.0125: real time    0.0162
    --------------------------------------------
      LOOP:  cpu time    0.3913: real time    0.4446

 eigenvalue-minimisations  :  1544
 total energy-change (2. order) : 0.5056588E+03  (-0.2863641E+04)
 number of electron      76.0000000 magnetization 
 augmentation part       76.0000000 magnetization 

 Free energy of the ion-electron system (eV)
  ---------------------------------------------------
  alpha Z        PSCENC =        68.36930941
  Ewald energy   TEWEN  =     -2708.99648515
  -Hartree energ DENC   =      -634.57322685
  -exchange      EXHF   =         0.00000000
  -V(xc)+E(xc)   XCENC  =       182.18366543
  PAW double counting   =      2494.22442938    -2541.12215007
  entropy T*S    EENTRO =         0.00000000
  eigenvalues    EBANDS =      -123.51461565
  atomic energy  EATOM  =      3769.08782378
  Solvation  Ediel_sol  =         0.00000000
  ---------------------------------------------------
  free energy    TOTEN  =       505.65875029 eV

  energy without entropy =      505.65875029  energy(sigma->0) =      505.65875029


--------------------------------------------------------------------------------------------------------




--------------------------------------- Iteration      1(   2)  ---------------------------------------


     EDDAV:  cpu time    0.3901: real time    0.3906
 BZINTS: Fermi energy:  4.653893; 76.000000 electrons
         Band energy:-640.594120;  BLOECHL correction:  0.000000
       DOS:  cpu time    0.0020: real time    0.0020
    --------------------------------------------
      LOOP:  cpu time    0.3921: real time    0.3926

 eigenvalue-minimisations  :  1840
 total energy-change (2. order) :-0.5170795E+03  (-0.4936637E+03)
 number of electron      76.0000000 magnetization 
 augmentation part       76.0000000 magnetization 

 Free energy of the ion-electron system (eV)
  ---------------------------------------------------
  alpha Z        PSCENC =        68.36930941
  Ewald energy   TEWEN  =     -2708.99648515
  -Hartree energ DENC   =      -634.57322685
  -exchange      EXHF   =         0.00000000
  -V(xc)+E(xc)   XCENC  =       182.18366543
  PAW double counting   =      2494.22442938    -2541.12215007
  entropy T*S    EENTRO =         0.00000000
  eigenvalues    EBANDS =      -640.59411997
  atomic energy  EATOM  =      3769.08782378
  Solvation  Ediel_sol  =         0.00000000
  ---------------------------------------------------
  free energy    TOTEN  =       -11.42075403 eV

  energy without entropy =      -11.42075403  energy(sigma->0) =      -11.42075403


--------------------------------------------------------------------------------------------------------




--------------------------------------- Iteration      1(   3)  ---------------------------------------


     EDDAV:  cpu time    0.4280: real time    0.4313
 BZINTS: Fermi energy:  1.593218; 76.000000 electrons
         Band energy:-701.311953;  BLOECHL correction:  0.000000
       DOS:  cpu time    0.0019: real time    0.0019
    --------------------------------------------
      LOOP:  cpu time    0.4299: real time    0.4332

 eigenvalue-minimisations  :  2104
 total energy-change (2. order) :-0.6071783E+02  (-0.6026904E+02)
 number of electron      76.0000000 magnetization 
 augmentation part       76.0000000 magnetization 

 Free energy of the ion-electron system (eV)
  ---------------------------------------------------
  alpha Z        PSCENC =        68.36930941
  Ewald energy   TEWEN  =     -2708.99648515
  -Hartree energ DENC   =      -634.57322685
  -exchange      EXHF   =         0.00000000
  -V(xc)+E(xc)   XCENC  =       182.18366543
  PAW double counting   =      2494.22442938    -2541.12215007
  entropy T*S    EENTRO =         0.00000000
  eigenvalues    EBANDS =      -701.31195287
  atomic energy  EATOM  =      3769.08782378
  Solvation  Ediel_sol  =         0.00000000
  ---------------------------------------------------
  free energy    TOTEN  =       -72.13858693 eV

  energy without entropy =      -72.13858693  energy(sigma->0) =      -72.13858693


--------------------------------------------------------------------------------------------------------




--------------------------------------- Iteration      1(   4)  ---------------------------------------


     EDDAV:  cpu time    0.5515: real time    0.5519
 BZINTS: Fermi energy:  1.545221; 76.000000 electrons
         Band energy:-708.248994;  BLOECHL correction:  0.000000
       DOS:  cpu time    0.0015: real time    0.0015
    --------------------------------------------
      LOOP:  cpu time    0.5530: real time    0.5534

 eigenvalue-minimisations  :  2832
 total energy-change (2. order) :-0.6937041E+01  (-0.6916399E+01)
 number of electron      76.0000000 magnetization 
 augmentation part       76.0000000 magnetization 

 Free energy of the ion-electron system (eV)
  ---------------------------------------------------
  alpha Z        PSCENC =        68.36930941
  Ewald energy   TEWEN  =     -2708.99648515
  -Hartree energ DENC   =      -634.57322685
  -exchange      EXHF   =         0.00000000
  -V(xc)+E(xc)   XCENC  =       182.18366543
  PAW double counting   =      2494.22442938    -2541.12215007
  entropy T*S    EENTRO =         0.00000000
  eigenvalues    EBANDS =      -708.24899398
  atomic energy  EATOM  =      3769.08782378
  Solvation  Ediel_sol  =         0.00000000
  ---------------------------------------------------
  free energy    TOTEN  =       -79.07562804 eV

  energy without entropy =      -79.07562804  energy(sigma->0) =      -79.07562804


--------------------------------------------------------------------------------------------------------




--------------------------------------- Iteration      1(   5)  ---------------------------------------


     EDDAV:  cpu time    0.4708: real time    0.4711
 BZINTS: Fermi energy:  1.482394; 76.000000 electrons
         Band energy:-709.095900;  BLOECHL correction:  0.000000
       DOS:  cpu time    0.0016: real time    0.0016
    CHARGE:  cpu time    0.0249: real time    0.0249
    MIXING:  cpu time    0.0011: real time    0.0122
    --------------------------------------------
      LOOP:  cpu time    0.4984: real time    0.5098

 eigenvalue-minimisations  :  2248
 total energy-change (2. order) :-0.8469065E+00  (-0.8467396E+00)
 number of electron      75.9999993 magnetization 
 augmentation part       -1.8296425 magnetization 

 Broyden mixing:
  rms(total) = 0.23216E+01    rms(broyden)= 0.23213E+01
  rms(prec ) = 0.25654E+01
  weight for this iteration     100.00

 Free energy of the ion-electron system (eV)
  ---------------------------------------------------
  alpha Z        PSCENC =        68.36930941
  Ewald energy   TEWEN  =     -2708.99648515
  -Hartree energ DENC   =      -634.57322685
  -exchange      EXHF   =         0.00000000
  -V(xc)+E(xc)   XCENC  =       182.18366543
  PAW double counting   =      2494.22442938    -2541.12215007
  entropy T*S    EENTRO =         0.00000000
  eigenvalues    EBANDS =      -709.09590044
  atomic energy  EATOM  =      3769.08782378
  Solvation  Ediel_sol  =         0.00000000
  ---------------------------------------------------
  free energy    TOTEN  =       -79.92253451 eV

  energy without entropy =      -79.92253451  energy(sigma->0) =      -79.92253451


--------------------------------------------------------------------------------------------------------




--------------------------------------- Iteration      1(   6)  ---------------------------------------


    POTLOK:  cpu time    0.0041: real time    0.0044
    SETDIJ:  cpu time    0.0011: real time    0.0011
    EDDIAG:  cpu time    0.1010: real time    0.1151
  RMM-DIIS:  cpu time    0.1623: real time    0.1626
    ORTHCH:  cpu time    0.0139: real time    0.0139
 BZINTS: Fermi energy:  1.996998; 76.000000 electrons
         Band energy:-691.199667;  BLOECHL correction:  0.000000
       DOS:  cpu time    0.0015: real time    0.0015
    CHARGE:  cpu time    0.0226: real time    0.0226
    MIXING:  cpu time    0.0007: real time    0.0007
    --------------------------------------------
      LOOP:  cpu time    0.3072: real time    0.3218

 eigenvalue-minimisations  :  1588
 total energy-change (2. order) : 0.2137140E+01  (-0.6424970E+00)
 number of electron      75.9999993 magnetization 
 augmentation part       -1.7637064 magnetization 

 Broyden mixing:
  rms(total) = 0.15556E+01    rms(broyden)= 0.15556E+01
  rms(prec ) = 0.16203E+01
  weight for this iteration     100.00

 eigenvalues of (default mixing * dielectric matrix)
  average eigenvalue GAMMA=   2.4398
  2.4398

 Free energy of the ion-electron system (eV)
  ---------------------------------------------------
  alpha Z        PSCENC =        68.36930941
  Ewald energy   TEWEN  =     -2708.99648515
  -Hartree energ DENC   =      -650.37249616
  -exchange      EXHF   =         0.00000000
  -V(xc)+E(xc)   XCENC  =       184.04293929
  PAW double counting   =      4078.81699335    -4127.53381141
  entropy T*S    EENTRO =         0.00000000
  eigenvalues    EBANDS =      -691.19966726
  atomic energy  EATOM  =      3769.08782378
  Solvation  Ediel_sol  =         0.00000000
  ---------------------------------------------------
  free energy    TOTEN  =       -77.78539415 eV

  energy without entropy =      -77.78539415  energy(sigma->0) =      -77.78539415


--------------------------------------------------------------------------------------------------------




--------------------------------------- Iteration      1(   7)  ---------------------------------------


    POTLOK:  cpu time    0.0037: real time    0.0040
    SETDIJ:  cpu time    0.0013: real time    0.0013
    EDDIAG:  cpu time    0.1008: real time    0.1009
  RMM-DIIS:  cpu time    0.1779: real time    0.1779
    ORTHCH:  cpu time    0.0139: real time    0.0139
 BZINTS: Fermi energy:  2.273617; 76.000000 electrons
         Band energy:-674.280733;  BLOECHL correction:  0.000000
       DOS:  cpu time    0.0015: real time    0.0015
    CHARGE:  cpu time    0.0229: real time    0.0229
    MIXING:  cpu time    0.0006: real time    0.0006
    --------------------------------------------
      LOOP:  cpu time    0.3226: real time    0.3230

 eigenvalue-minimisations  :  1687
 total energy-change (2. order) : 0.4243500E+00  (-0.2387015E+00)
 number of electron      75.9999993 magnetization 
 augmentation part       -1.7150658 magnetization 

 Broyden mixing:
  rms(total) = 0.45777E+00    rms(broyden)= 0.45777E+00
  rms(prec ) = 0.48289E+00
  weight for this iteration     100.00

 eigenvalues of (default mixing * dielectric matrix)
  average eigenvalue GAMMA=   1.9374
  1.4408  2.4340

 Free energy of the ion-electron system (eV)
  ---------------------------------------------------
  alpha Z        PSCENC =        68.36930941
  Ewald energy   TEWEN  =     -2708.99648515
  -Hartree energ DENC   =      -667.13838753
  -exchange      EXHF   =         0.00000000
  -V(xc)+E(xc)   XCENC  =       185.94907977
  PAW double counting   =      7048.29417771    -7098.64582895
  entropy T*S    EENTRO =         0.00000000
  eigenvalues    EBANDS =      -674.28073319
  atomic energy  EATOM  =      3769.08782378
  Solvation  Ediel_sol  =         0.00000000
  ---------------------------------------------------
  free energy    TOTEN  =       -77.36104414 eV

  energy without entropy =      -77.36104414  energy(sigma->0) =      -77.36104414


--------------------------------------------------------------------------------------------------------




--------------------------------------- Iteration      1(   8)  ---------------------------------------


    POTLOK:  cpu time    0.0036: real time    0.0039
    SETDIJ:  cpu time    0.0013: real time    0.0013
    EDDIAG:  cpu time    0.1009: real time    0.1009
  RMM-DIIS:  cpu time    0.1946: real time    0.1946
    ORTHCH:  cpu time    0.0139: real time    0.0139
 BZINTS: Fermi energy:  2.297017; 76.000000 electrons
         Band energy:-673.259284;  BLOECHL correction:  0.000000
       DOS:  cpu time    0.0016: real time    0.0016
    CHARGE:  cpu time    0.0230: real time    0.0230
    MIXING:  cpu time    0.0007: real time    0.0007
    --------------------------------------------
      LOOP:  cpu time    0.3396: real time    0.3399

 eigenvalue-minimisations  :  1817
 total energy-change (2. order) : 0.7612162E-01  (-0.2195254E-01)
 number of electron      75.9999993 magnetization 
 augmentation part       -1.7379086 magnetization 

 Broyden mixing:
  rms(total) = 0.56281E-01    rms(broyden)= 0.56255E-01
  rms(prec ) = 0.68351E-01
  weight for this iteration     100.00

 eigenvalues of (default mixing * dielectric matrix)
  average eigenvalue GAMMA=   1.6374
  2.3061  0.9623  1.6438

 Free energy of the ion-electron system (eV)
  ---------------------------------------------------
  alpha Z        PSCENC =        68.36930941
  Ewald energy   TEWEN  =     -2708.99648515
  -Hartree energ DENC   =      -668.16835282
  -exchange      EXHF   =         0.00000000
  -V(xc)+E(xc)   XCENC  =       186.10364648
  PAW double counting   =      7988.57720495    -8038.99878482
  entropy T*S    EENTRO =         0.00000000
  eigenvalues    EBANDS =      -673.25928436
  atomic energy  EATOM  =      3769.08782378
  Solvation  Ediel_sol  =         0.00000000
  ---------------------------------------------------
  free energy    TOTEN  =       -77.28492252 eV

  energy without entropy =      -77.28492252  energy(sigma->0) =      -77.28492252


--------------------------------------------------------------------------------------------------------




--------------------------------------- Iteration      1(   9)  ---------------------------------------


    POTLOK:  cpu time    0.0036: real time    0.0039
    SETDIJ:  cpu time    0.0012: real time    0.0012
    EDDIAG:  cpu time    0.1005: real time    0.1005
  RMM-DIIS:  cpu time    0.2006: real time    0.2006
    ORTHCH:  cpu time    0.0138: real time    0.0138
 BZINTS: Fermi energy:  2.292442; 76.000000 electrons
         Band energy:-674.358679;  BLOECHL correction:  0.000000
       DOS:  cpu time    0.0015: real time    0.0015
    CHARGE:  cpu time    0.0228: real time    0.0228
    MIXING:  cpu time    0.0007: real time    0.0007
    --------------------------------------------
      LOOP:  cpu time    0.3448: real time    0.3451

 eigenvalue-minimisations  :  1897
 total energy-change (2. order) : 0.4347548E-02  (-0.2912366E-02)
 number of electron      75.9999993 magnetization 
 augmentation part       -1.7535611 magnetization 

 Broyden mixing:
  rms(total) = 0.26295E-01    rms(broyden)= 0.26278E-01
  rms(prec ) = 0.28138E-01
  weight for this iteration     100.00

 eigenvalues of (default mixing * dielectric matrix)
  average eigenvalue GAMMA=   1.7821
  1.2456  2.0443  2.0443  1.7945

 Free energy of the ion-electron system (eV)
  ---------------------------------------------------
  alpha Z        PSCENC =        68.36930941
  Ewald energy   TEWEN  =     -2708.99648515
  -Hartree energ DENC   =      -667.08140736
  -exchange      EXHF   =         0.00000000
  -V(xc)+E(xc)   XCENC  =       186.02937868
  PAW double counting   =      7880.12890820    -7930.45942319
  entropy T*S    EENTRO =         0.00000000
  eigenvalues    EBANDS =      -674.35867935
  atomic energy  EATOM  =      3769.08782378
  Solvation  Ediel_sol  =         0.00000000
  ---------------------------------------------------
  free energy    TOTEN  =       -77.28057498 eV

  energy without entropy =      -77.28057498  energy(sigma->0) =      -77.28057498


--------------------------------------------------------------------------------------------------------




--------------------------------------- Iteration      1(  10)  ---------------------------------------


    POTLOK:  cpu time    0.0039: real time    0.0042
    SETDIJ:  cpu time    0.0012: real time    0.0012
    EDDIAG:  cpu time    0.1004: real time    0.1005
  RMM-DIIS:  cpu time    0.2379: real time    0.2379
    ORTHCH:  cpu time    0.0143: real time    0.0143
 BZINTS: Fermi energy:  2.291938; 76.000000 electrons
         Band energy:-674.034455;  BLOECHL correction:  0.000000
       DOS:  cpu time    0.0015: real time    0.0015
    CHARGE:  cpu time    0.0223: real time    0.0224
    MIXING:  cpu time    0.0007: real time    0.0007
    --------------------------------------------
      LOOP:  cpu time    0.3824: real time    0.3827

 eigenvalue-minimisations  :  2243
 total energy-change (2. order) :-0.5074322E-03  (-0.7758206E-03)
 number of electron      75.9999993 magnetization 
 augmentation part       -1.7577712 magnetization 

 Broyden mixing:
  rms(total) = 0.15803E-01    rms(broyden)= 0.15789E-01
  rms(prec ) = 0.16714E-01
  weight for this iteration     100.00

 eigenvalues of (default mixing * dielectric matrix)
  average eigenvalue GAMMA=   1.8261
  2.5457  2.5457  1.8604  1.3244  0.8541

 Free energy of the ion-electron system (eV)
  ---------------------------------------------------
  alpha Z        PSCENC =        68.36930941
  Ewald energy   TEWEN  =     -2708.99648515
  -Hartree energ DENC   =      -667.43926974
  -exchange      EXHF   =         0.00000000
  -V(xc)+E(xc)   XCENC  =       186.05994540
  PAW double counting   =      7847.29967243    -7897.62762355
  entropy T*S    EENTRO =         0.00000000
  eigenvalues    EBANDS =      -674.03445498
  atomic energy  EATOM  =      3769.08782378
  Solvation  Ediel_sol  =         0.00000000
  ---------------------------------------------------
  free energy    TOTEN  =       -77.28108241 eV

  energy without entropy =      -77.28108241  energy(sigma->0) =      -77.28108241


--------------------------------------------------------------------------------------------------------




--------------------------------------- Iteration      1(  11)  ---------------------------------------


    POTLOK:  cpu time    0.0037: real time    0.0039
    SETDIJ:  cpu time    0.0012: real time    0.0012
    EDDIAG:  cpu time    0.0997: real time    0.0997
  RMM-DIIS:  cpu time    0.2187: real time    0.2188
    ORTHCH:  cpu time    0.0138: real time    0.0138
 BZINTS: Fermi energy:  2.292067; 76.000000 electrons
         Band energy:-673.823588;  BLOECHL correction:  0.000000
       DOS:  cpu time    0.0015: real time    0.0015
    CHARGE:  cpu time    0.0225: real time    0.0225
    MIXING:  cpu time    0.0007: real time    0.0007
    --------------------------------------------
      LOOP:  cpu time    0.3619: real time    0.3622

 eigenvalue-minimisations  :  2062
 total energy-change (2. order) :-0.2757273E-03  (-0.2649076E-03)
 number of electron      75.9999993 magnetization 
 augmentation part       -1.7603777 magnetization 

 Broyden mixing:
  rms(total) = 0.50644E-02    rms(broyden)= 0.50470E-02
  rms(prec ) = 0.55417E-02
  weight for this iteration     100.00

 eigenvalues of (default mixing * dielectric matrix)
  average eigenvalue GAMMA=   1.6851
  2.4834  2.4834  1.6941  1.0466  1.2015  1.2015

 Free energy of the ion-electron system (eV)
  ---------------------------------------------------
  alpha Z        PSCENC =        68.36930941
  Ewald energy   TEWEN  =     -2708.99648515
  -Hartree energ DENC   =      -667.69284973
  -exchange      EXHF   =         0.00000000
  -V(xc)+E(xc)   XCENC  =       186.07992583
  PAW double counting   =      7814.01362877    -7864.31912324
  entropy T*S    EENTRO =         0.00000000
  eigenvalues    EBANDS =      -673.82358780
  atomic energy  EATOM  =      3769.08782378
  Solvation  Ediel_sol  =         0.00000000
  ---------------------------------------------------
  free energy    TOTEN  =       -77.28135813 eV

  energy without entropy =      -77.28135813  energy(sigma->0) =      -77.28135813


--------------------------------------------------------------------------------------------------------




--------------------------------------- Iteration      1(  12)  ---------------------------------------


    POTLOK:  cpu time    0.0037: real time    0.0040
    SETDIJ:  cpu time    0.0014: real time    0.0014
    EDDIAG:  cpu time    0.1001: real time    0.1001
  RMM-DIIS:  cpu time    0.1986: real time    0.1987
    ORTHCH:  cpu time    0.0146: real time    0.0146
 BZINTS: Fermi energy:  2.289254; 76.000000 electrons
         Band energy:-673.853001;  BLOECHL correction:  0.000000
       DOS:  cpu time    0.0015: real time    0.0015
    CHARGE:  cpu time    0.0231: real time    0.0231
    MIXING:  cpu time    0.0008: real time    0.0008
    --------------------------------------------
      LOOP:  cpu time    0.3437: real time    0.3441

 eigenvalue-minimisations  :  1807
 total energy-change (2. order) :-0.7606165E-04  (-0.1015038E-03)
 number of electron      75.9999993 magnetization 
 augmentation part       -1.7621419 magnetization 

 Broyden mixing:
  rms(total) = 0.22198E-02    rms(broyden)= 0.22054E-02
  rms(prec ) = 0.24897E-02
  weight for this iteration     100.00

 eigenvalues of (default mixing * dielectric matrix)
  average eigenvalue GAMMA=   1.4710
  2.4707  2.4707  1.7167  1.1389  1.1389  1.1816  0.1793

 Free energy of the ion-electron system (eV)
  ---------------------------------------------------
  alpha Z        PSCENC =        68.36930941
  Ewald energy   TEWEN  =     -2708.99648515
  -Hartree energ DENC   =      -667.67064716
  -exchange      EXHF   =         0.00000000
  -V(xc)+E(xc)   XCENC  =       186.08151999
  PAW double counting   =      7827.95002081    -7878.24997454
  entropy T*S    EENTRO =         0.00000000
  eigenvalues    EBANDS =      -673.85300134
  atomic energy  EATOM  =      3769.08782378
  Solvation  Ediel_sol  =         0.00000000
  ---------------------------------------------------
  free energy    TOTEN  =       -77.28143420 eV

  energy without entropy =      -77.28143420  energy(sigma->0) =      -77.28143420


--------------------------------------------------------------------------------------------------------




--------------------------------------- Iteration      1(  13)  ---------------------------------------


    POTLOK:  cpu time    0.0037: real time    0.0040
    SETDIJ:  cpu time    0.0012: real time    0.0012
    EDDIAG:  cpu time    0.1015: real time    0.1015
  RMM-DIIS:  cpu time    0.1311: real time    0.1311
    ORTHCH:  cpu time    0.0137: real time    0.0137
 BZINTS: Fermi energy:  2.286756; 76.000000 electrons
         Band energy:-673.843658;  BLOECHL correction:  0.000000
       DOS:  cpu time    0.0015: real time    0.0015
    CHARGE:  cpu time    0.0228: real time    0.0228
    MIXING:  cpu time    0.0048: real time    0.0048
    --------------------------------------------
      LOOP:  cpu time    0.2803: real time    0.2806

 eigenvalue-minimisations  :  1310
 total energy-change (2. order) :-0.2550910E-04  (-0.3311420E-04)
 number of electron      75.9999993 magnetization 
 augmentation part       -1.7627963 magnetization 

 Broyden mixing:
  rms(total) = 0.18124E-02    rms(broyden)= 0.18079E-02
  rms(prec ) = 0.20799E-02
  weight for this iteration     100.00

 eigenvalues of (default mixing * dielectric matrix)
  average eigenvalue GAMMA=   1.4359
  2.4893  2.4893  1.7022  1.2481  1.2481  1.0103  0.6499  0.6499

 Free energy of the ion-electron system (eV)
  ---------------------------------------------------
  alpha Z        PSCENC =        68.36930941
  Ewald energy   TEWEN  =     -2708.99648515
  -Hartree energ DENC   =      -667.68513942
  -exchange      EXHF   =         0.00000000
  -V(xc)+E(xc)   XCENC  =       186.08264180
  PAW double counting   =      7827.90950873    -7878.20546062
  entropy T*S    EENTRO =         0.00000000
  eigenvalues    EBANDS =      -673.84365823
  atomic energy  EATOM  =      3769.08782378
  Solvation  Ediel_sol  =         0.00000000
  ---------------------------------------------------
  free energy    TOTEN  =       -77.28145971 eV

  energy without entropy =      -77.28145971  energy(sigma->0) =      -77.28145971


--------------------------------------------------------------------------------------------------------




--------------------------------------- Iteration      1(  14)  ---------------------------------------


    POTLOK:  cpu time    0.0041: real time    0.0044
    SETDIJ:  cpu time    0.0013: real time    0.0013
    EDDIAG:  cpu time    0.0997: real time    0.0997
  RMM-DIIS:  cpu time    0.1099: real time    0.1099
    ORTHCH:  cpu time    0.0141: real time    0.0141
 BZINTS: Fermi energy:  2.284759; 76.000000 electrons
         Band energy:-673.826099;  BLOECHL correction:  0.000000
       DOS:  cpu time    0.0015: real time    0.0015
    --------------------------------------------
      LOOP:  cpu time    0.2305: real time    0.2308

 eigenvalue-minimisations  :  1131
 total energy-change (2. order) :-0.4944299E-05  (-0.8707665E-05)
 number of electron      75.9999993 magnetization 
 augmentation part       -1.7627963 magnetization 

 Free energy of the ion-electron system (eV)
  ---------------------------------------------------
  alpha Z        PSCENC =        68.36930941
  Ewald energy   TEWEN  =     -2708.99648515
  -Hartree energ DENC   =      -667.71491270
  -exchange      EXHF   =         0.00000000
  -V(xc)+E(xc)   XCENC  =       186.08552813
  PAW double counting   =      7826.54750460    -7876.83413335
  entropy T*S    EENTRO =         0.00000000
  eigenvalues    EBANDS =      -673.82609938
  atomic energy  EATOM  =      3769.08782378
  Solvation  Ediel_sol  =         0.00000000
  ---------------------------------------------------
  free energy    TOTEN  =       -77.28146465 eV

  energy without entropy =      -77.28146465  energy(sigma->0) =      -77.28146465


--------------------------------------------------------------------------------------------------------




 average (electrostatic) potential at core
  the test charge radii are     0.9587  0.9698  0.7079
  (the norm of the test charge is              1.0000)
       1 -88.3270       2 -88.3270       3 -88.2892       4 -88.2892       5 -88.2891
       6 -88.2890       7 -88.2515       8 -88.2515       9 -88.2610      10 -88.2610
      11 -63.9676      12 -63.9676      13 -63.5849      14 -63.5849      15 -63.5849
      16 -63.5849
 
 
 
 E-fermi :   2.2848     XC(G=0):  -9.0810     alpha+bet :-10.4640


 k-point     1 :       0.1250    0.1250    0.1250
  band No.  band energies     occupation 
      1     -41.1268      2.00000
      2     -41.1268      2.00000
      3     -40.7650      2.00000
      4     -40.7644      2.00000
      5     -40.7641      2.00000
      6     -40.7635      2.00000
      7     -12.8780      2.00000
      8     -12.7544      2.00000
      9      -9.6428      2.00000
     10      -9.6057      2.00000
     11      -9.5577      2.00000
     12      -9.4935      2.00000
     13      -9.4675      2.00000
     14      -9.4375      2.00000
     15      -5.4787      2.00000
     16      -5.0066      2.00000
     17      -2.6647      2.00000
     18      -2.6214      2.00000
     19      -2.5688      2.00000
     20      -2.2889      2.00000
     21      -2.2573      2.00000
     22      -2.2147      2.00000
     23      -0.1215      2.00000
     24      -0.0685      2.00000
     25       0.0456      2.00000
     26       0.1437      2.00000
     27       0.3471      2.00000
     28       0.6596      2.00000
     29       0.7760      2.00000
     30       1.1600      2.00000
     31       1.3706      2.00000
     32       1.4342      2.00000
     33       1.4914      2.00000
     34       1.6758      2.00000
     35       1.7806      2.00000
     36       1.8100      2.00000
     37       1.9724      2.00000
     38       2.0976      2.00000
     39       5.6975      0.00000
     40       5.9948      0.00000
     41       6.1807      0.00000
     42       6.5068      0.00000
     43       6.6719      0.00000
     44       7.1169      0.00000
     45       7.2623      0.00000
     46       7.3417      0.00000
     47       8.0141      0.00000
     48       8.5592      0.00000

 k-point     2 :       0.3750    0.1250    0.1250
  band No.  band energies     occupation 
      1     -41.1268      2.00000
      2     -41.1268      2.00000
      3     -40.7648      2.00000
      4     -40.7644      2.00000
      5     -40.7640      2.00000
      6     -40.7637      2.00000
      7     -12.8419      2.00000
      8     -12.7906      2.00000
      9      -9.6406      2.00000
     10      -9.5920      2.00000
     11      -9.5537      2.00000
     12      -9.5104      2.00000
     13      -9.4774      2.00000
     14      -9.4473      2.00000
     15      -5.3075      2.00000
     16      -5.1120      2.00000
     17      -2.6868      2.00000
     18      -2.6658      2.00000
     19      -2.5130      2.00000
     20      -2.3364      2.00000
     21      -2.2491      2.00000
     22      -2.2152      2.00000
     23      -0.1435      2.00000
     24      -0.0884      2.00000
     25       0.1718      2.00000
     26       0.2128      2.00000
     27       0.4311      2.00000
     28       0.6789      2.00000
     29       0.9305      2.00000
     30       1.0549      2.00000
     31       1.1482      2.00000
     32       1.3067      2.00000
     33       1.5182      2.00000
     34       1.6019      2.00000
     35       1.7356      2.00000
     36       1.7882      2.00000
     37       1.8624      2.00000
     38       1.9345      2.00000
     39       6.0286      0.00000
     40       6.2302      0.00000
     41       6.3874      0.00000
     42       6.6164      0.00000
     43       6.7741      0.00000
     44       7.0103      0.00000
     45       7.1044      0.00000
     46       7.2897      0.00000
     47       8.3014      0.00000
     48       8.8318      0.00000

 k-point     3 :      -0.3750    0.1250    0.1250
  band No.  band energies     occupation 
      1     -41.1268      2.00000
      2     -41.1268      2.00000
      3     -40.7648      2.00000
      4     -40.7644      2.00000
      5     -40.7640      2.00000
      6     -40.7637      2.00000
      7     -12.8419      2.00000
      8     -12.7906      2.00000
      9      -9.6406      2.00000
     10      -9.5919      2.00000
     11      -9.5537      2.00000
     12      -9.5105      2.00000
     13      -9.4773      2.00000
     14      -9.4474      2.00000
     15      -5.3075      2.00000
     16      -5.1120      2.00000
     17      -2.6868      2.00000
     18      -2.6658      2.00000
     19      -2.5130      2.00000
     20      -2.3364      2.00000
     21      -2.2492      2.00000
     22      -2.2152      2.00000
     23      -0.1435      2.00000
     24      -0.0884      2.00000
     25       0.1718      2.00000
     26       0.2128      2.00000
     27       0.4311      2.00000
     28       0.6789      2.00000
     29       0.9306      2.00000
     30       1.0549      2.00000
     31       1.1482      2.00000
     32       1.3067      2.00000
     33       1.5182      2.00000
     34       1.6019      2.00000
     35       1.7355      2.00000
     36       1.7882      2.00000
     37       1.8624      2.00000
     38       1.9345      2.00000
     39       6.0286      0.00000
     40       6.2302      0.00000
     41       6.3874      0.00000
     42       6.6163      0.00000
     43       6.7744      0.00000
     44       7.0103      0.00000
     45       7.1045      0.00000
     46       7.2897      0.00000
     47       8.2556      0.00000
     48       8.8577      0.00000

 k-point     4 :      -0.1250    0.1250    0.1250
  band No.  band energies     occupation 
      1     -41.1268      2.00000
      2     -41.1268      2.00000
      3     -40.7650      2.00000
      4     -40.7644      2.00000
      5     -40.7641      2.00000
      6     -40.7635      2.00000
      7     -12.8780      2.00000
      8     -12.7544      2.00000
      9      -9.6429      2.00000
     10      -9.6057      2.00000
     11      -9.5576      2.00000
     12      -9.4934      2.00000
     13      -9.4676      2.00000
     14      -9.4375      2.00000
     15      -5.4787      2.00000
     16      -5.0066      2.00000
     17      -2.6647      2.00000
     18      -2.6214      2.00000
     19      -2.5688      2.00000
     20      -2.2889      2.00000
     21      -2.2573      2.00000
     22      -2.2147      2.00000
     23      -0.1215      2.00000
     24      -0.0685      2.00000
     25       0.0456      2.00000
     26       0.1437      2.00000
     27       0.3472      2.00000
     28       0.6596      2.00000
     29       0.7760      2.00000
     30       1.1600      2.00000
     31       1.3706      2.00000
     32       1.4342      2.00000
     33       1.4913      2.00000
     34       1.6758      2.00000
     35       1.7806      2.00000
     36       1.8099      2.00000
     37       1.9724      2.00000
     38       2.0976      2.00000
     39       5.6976      0.00000
     40       5.9948      0.00000
     41       6.1807      0.00000
     42       6.5069      0.00000
     43       6.6716      0.00000
     44       7.1170      0.00000
     45       7.2598      0.00000
     46       7.3382      0.00000
     47       8.0141      0.00000
     48       8.4885      0.00000

 k-point     5 :       0.1250    0.3750    0.1250
  band No.  band energies     occupation 
      1     -41.1268      2.00000
      2     -41.1268      2.00000
      3     -40.7650      2.00000
      4     -40.7644      2.00000
      5     -40.7641      2.00000
      6     -40.7635      2.00000
      7     -12.8397      2.00000
      8     -12.7712      2.00000
      9      -9.7037      2.00000
     10      -9.6246      2.00000
     11      -9.5535      2.00000
     12      -9.5010      2.00000
     13      -9.4713      2.00000
     14      -9.4554      2.00000
     15      -5.2807      2.00000
     16      -5.0783      2.00000
     17      -2.6667      2.00000
     18      -2.5445      2.00000
     19      -2.4049      2.00000
     20      -2.3474      2.00000
     21      -2.2270      2.00000
     22      -2.1994      2.00000
     23      -0.1925      2.00000
     24      -0.0741      2.00000
     25       0.0626      2.00000
     26       0.1499      2.00000
     27       0.4313      2.00000
     28       0.6802      2.00000
     29       0.7739      2.00000
     30       0.9801      2.00000
     31       1.2428      2.00000
     32       1.3719      2.00000
     33       1.5026      2.00000
     34       1.5869      2.00000
     35       1.6465      2.00000
     36       1.8630      2.00000
     37       1.9506      2.00000
     38       2.2056      2.00000
     39       5.2314      0.00000
     40       6.0098      0.00000
     41       6.5303      0.00000
     42       6.6553      0.00000
     43       6.8136      0.00000
     44       6.9114      0.00000
     45       7.0756      0.00000
     46       7.2303      0.00000
     47       8.3156      0.00000
     48       8.6362      0.00000

 k-point     6 :       0.3750    0.3750    0.1250
  band No.  band energies     occupation 
      1     -41.1268      2.00000
      2     -41.1268      2.00000
      3     -40.7648      2.00000
      4     -40.7644      2.00000
      5     -40.7640      2.00000
      6     -40.7637      2.00000
      7     -12.8185      2.00000
      8     -12.7900      2.00000
      9      -9.7111      2.00000
     10      -9.6793      2.00000
     11      -9.5337      2.00000
     12      -9.4937      2.00000
     13      -9.4576      2.00000
     14      -9.4507      2.00000
     15      -5.1807      2.00000
     16      -5.0970      2.00000
     17      -2.6241      2.00000
     18      -2.5430      2.00000
     19      -2.4405      2.00000
     20      -2.3774      2.00000
     21      -2.2230      2.00000
     22      -2.2026      2.00000
     23      -0.2274      2.00000
     24      -0.1351      2.00000
     25      -0.0030      2.00000
     26       0.1813      2.00000
     27       0.5267      2.00000
     28       0.7312      2.00000
     29       0.8831      2.00000
     30       0.9714      2.00000
     31       1.1528      2.00000
     32       1.2036      2.00000
     33       1.3660      2.00000
     34       1.4288      2.00000
     35       1.7526      2.00000
     36       1.9078      2.00000
     37       1.9726      2.00000
     38       2.0483      2.00000
     39       5.6916      0.00000
     40       6.0881      0.00000
     41       6.6242      0.00000
     42       6.6906      0.00000
     43       6.7643      0.00000
     44       7.0133      0.00000
     45       7.2609      0.00000
     46       7.3593      0.00000
     47       8.5325      0.00000
     48       8.6443      0.00000

 k-point     7 :      -0.3750    0.3750    0.1250
  band No.  band energies     occupation 
      1     -41.1268      2.00000
      2     -41.1268      2.00000
      3     -40.7648      2.00000
      4     -40.7644      2.00000
      5     -40.7640      2.00000
      6     -40.7637      2.00000
      7     -12.8185      2.00000
      8     -12.7900      2.00000
      9      -9.7111      2.00000
     10      -9.6793      2.00000
     11      -9.5336      2.00000
     12      -9.4937      2.00000
     13      -9.4576      2.00000
     14      -9.4508      2.00000
     15      -5.1807      2.00000
     16      -5.0970      2.00000
     17      -2.6241      2.00000
     18      -2.5430      2.00000
     19      -2.4405      2.00000
     20      -2.3774      2.00000
     21      -2.2230      2.00000
     22      -2.2025      2.00000
     23      -0.2274      2.00000
     24      -0.1351      2.00000
     25      -0.0030      2.00000
     26       0.1812      2.00000
     27       0.5267      2.00000
     28       0.7312      2.00000
     29       0.8831      2.00000
     30       0.9714      2.00000
     31       1.1528      2.00000
     32       1.2036      2.00000
     33       1.3659      2.00000
     34       1.4288      2.00000
     35       1.7525      2.00000
     36       1.9078      2.00000
     37       1.9726      2.00000
     38       2.0483      2.00000
     39       5.6916      0.00000
     40       6.0881      0.00000
     41       6.6241      0.00000
     42       6.6907      0.00000
     43       6.7643      0.00000
     44       7.0135      0.00000
     45       7.2590      0.00000
     46       7.3607      0.00000
     47       8.5133      0.00000
     48       8.6406      0.00000

 k-point     8 :      -0.1250    0.3750    0.1250
  band No.  band energies     occupation 
      1     -41.1268      2.00000
      2     -41.1268      2.00000
      3     -40.7650      2.00000
      4     -40.7644      2.00000
      5     -40.7641      2.00000
      6     -40.7635      2.00000
      7     -12.8397      2.00000
      8     -12.7712      2.00000
      9      -9.7037      2.00000
     10      -9.6246      2.00000
     11      -9.5535      2.00000
     12      -9.5009      2.00000
     13      -9.4714      2.00000
     14      -9.4554      2.00000
     15      -5.2807      2.00000
     16      -5.0783      2.00000
     17      -2.6667      2.00000
     18      -2.5445      2.00000
     19      -2.4049      2.00000
     20      -2.3474      2.00000
     21      -2.2270      2.00000
     22      -2.1994      2.00000
     23      -0.1925      2.00000
     24      -0.0741      2.00000
     25       0.0626      2.00000
     26       0.1499      2.00000
     27       0.4313      2.00000
     28       0.6802      2.00000
     29       0.7739      2.00000
     30       0.9801      2.00000
     31       1.2428      2.00000
     32       1.3719      2.00000
     33       1.5026      2.00000
     34       1.5869      2.00000
     35       1.6465      2.00000
     36       1.8630      2.00000
     37       1.9506      2.00000
     38       2.2056      2.00000
     39       5.2314      0.00000
     40       6.0098      0.00000
     41       6.5304      0.00000
     42       6.6550      0.00000
     43       6.8136      0.00000
     44       6.9114      0.00000
     45       7.0759      0.00000
     46       7.2310      0.00000
     47       8.3266      0.00000
     48       8.6039      0.00000

 k-point     9 :       0.1250    0.1250    0.3750
  band No.  band energies     occupation 
      1     -41.1268      2.00000
      2     -41.1268      2.00000
      3     -40.7648      2.00000
      4     -40.7646      2.00000
      5     -40.7639      2.00000
      6     -40.7637      2.00000
      7     -12.8172      2.00000
      8     -12.7644      2.00000
      9      -9.6783      2.00000
     10      -9.6240      2.00000
     11      -9.5792      2.00000
     12      -9.5348      2.00000
     13      -9.5129      2.00000
     14      -9.4972      2.00000
     15      -5.2927      2.00000
     16      -5.0768      2.00000
     17      -2.5173      2.00000
     18      -2.4217      2.00000
     19      -2.2821      2.00000
     20      -2.2516      2.00000
     21      -2.1704      2.00000
     22      -2.0801      2.00000
     23      -0.2954      2.00000
     24      -0.2511      2.00000
     25      -0.1221      2.00000
     26      -0.0425      2.00000
     27       0.2519      2.00000
     28       0.5344      2.00000
     29       0.9432      2.00000
     30       0.9816      2.00000
     31       1.1709      2.00000
     32       1.2919      2.00000
     33       1.6596      2.00000
     34       1.7591      2.00000
     35       1.8542      2.00000
     36       1.9274      2.00000
     37       2.0033      2.00000
     38       2.1482      2.00000
     39       5.2915      0.00000
     40       5.6685      0.00000
     41       6.3318      0.00000
     42       6.6066      0.00000
     43       6.8987      0.00000
     44       7.0155      0.00000
     45       7.1521      0.00000
     46       7.3747      0.00000
     47       8.2663      0.00000
     48       8.6128      0.00000

 k-point    10 :       0.3750    0.1250    0.3750
  band No.  band energies     occupation 
      1     -41.1268      2.00000
      2     -41.1268      2.00000
      3     -40.7646      2.00000
      4     -40.7644      2.00000
      5     -40.7641      2.00000
      6     -40.7639      2.00000
      7     -12.8003      2.00000
      8     -12.7784      2.00000
      9      -9.7060      2.00000
     10      -9.6822      2.00000
     11      -9.5526      2.00000
     12      -9.5271      2.00000
     13      -9.4930      2.00000
     14      -9.4812      2.00000
     15      -5.1927      2.00000
     16      -5.1028      2.00000
     17      -2.5328      2.00000
     18      -2.4836      2.00000
     19      -2.2823      2.00000
     20      -2.2744      2.00000
     21      -2.1007      2.00000
     22      -2.0541      2.00000
     23      -0.2840      2.00000
     24      -0.2466      2.00000
     25      -0.0407      2.00000
     26       0.0801      2.00000
     27       0.2560      2.00000
     28       0.4031      2.00000
     29       0.8664      2.00000
     30       0.9451      2.00000
     31       1.0829      2.00000
     32       1.1227      2.00000
     33       1.6038      2.00000
     34       1.6580      2.00000
     35       1.8260      2.00000
     36       1.9357      2.00000
     37       2.0066      2.00000
     38       2.0886      2.00000
     39       5.6204      0.00000
     40       5.8581      0.00000
     41       6.6581      0.00000
     42       6.7605      0.00000
     43       6.9801      0.00000
     44       7.0762      0.00000
     45       7.2987      0.00000
     46       7.4080      0.00000
     47       8.2387      0.00000
     48       8.5066      0.00000

 k-point    11 :      -0.3750    0.1250    0.3750
  band No.  band energies     occupation 
      1     -41.1268      2.00000
      2     -41.1268      2.00000
      3     -40.7646      2.00000
      4     -40.7644      2.00000
      5     -40.7641      2.00000
      6     -40.7639      2.00000
      7     -12.8003      2.00000
      8     -12.7784      2.00000
      9      -9.7060      2.00000
     10      -9.6822      2.00000
     11      -9.5527      2.00000
     12      -9.5271      2.00000
     13      -9.4928      2.00000
     14      -9.4813      2.00000
     15      -5.1927      2.00000
     16      -5.1028      2.00000
     17      -2.5328      2.00000
     18      -2.4836      2.00000
     19      -2.2823      2.00000
     20      -2.2744      2.00000
     21      -2.1007      2.00000
     22      -2.0541      2.00000
     23      -0.2840      2.00000
     24      -0.2466      2.00000
     25      -0.0407      2.00000
     26       0.0801      2.00000
     27       0.2560      2.00000
     28       0.4031      2.00000
     29       0.8664      2.00000
     30       0.9450      2.00000
     31       1.0829      2.00000
     32       1.1227      2.00000
     33       1.6038      2.00000
     34       1.6580      2.00000
     35       1.8260      2.00000
     36       1.9357      2.00000
     37       2.0066      2.00000
     38       2.0886      2.00000
     39       5.6205      0.00000
     40       5.8581      0.00000
     41       6.6582      0.00000
     42       6.7606      0.00000
     43       6.9825      0.00000
     44       7.0759      0.00000
     45       7.2988      0.00000
     46       7.4087      0.00000
     47       8.2280      0.00000
     48       8.4893      0.00000

 k-point    12 :      -0.1250    0.1250    0.3750
  band No.  band energies     occupation 
      1     -41.1268      2.00000
      2     -41.1268      2.00000
      3     -40.7648      2.00000
      4     -40.7646      2.00000
      5     -40.7639      2.00000
      6     -40.7637      2.00000
      7     -12.8172      2.00000
      8     -12.7644      2.00000
      9      -9.6782      2.00000
     10      -9.6240      2.00000
     11      -9.5793      2.00000
     12      -9.5348      2.00000
     13      -9.5129      2.00000
     14      -9.4971      2.00000
     15      -5.2927      2.00000
     16      -5.0768      2.00000
     17      -2.5173      2.00000
     18      -2.4217      2.00000
     19      -2.2821      2.00000
[...]
     17      -2.4622      2.00000
     18      -2.4125      2.00000
     19      -2.2086      2.00000
     20      -2.1986      2.00000
     21      -2.0063      2.00000
     22      -1.9584      2.00000
     23      -0.2428      2.00000
     24      -0.2068      2.00000
     25      -0.0032      2.00000
     26       0.1059      2.00000
     27       0.2934      2.00000
     28       0.4495      2.00000
     29       0.8771      2.00000
     30       0.9629      2.00000
     31       1.1008      2.00000
     32       1.1314      2.00000
     33       1.5690      2.00000
     34       1.6326      2.00000
     35       1.8101      2.00000
     36       1.9125      2.00000
     37       1.9677      2.00000
     38       2.0624      2.00000
     39       5.4264      0.00000
     40       5.6554      0.00000
     41       6.5715      0.00000
     42       6.6747      0.00000
     43       6.8633      0.00000
     44       6.9658      0.00000
     45       7.1499      0.00000
     46       7.2494      0.00000
     47       8.2045      0.00000
     48       8.4659      0.00000

 k-point    12 :      -0.1250    0.1250    0.3750
  band No.  band energies     occupation 
      1     -41.0221      2.00000
      2     -41.0220      2.00000
      3     -40.6985      2.00000
      4     -40.6983      2.00000
      5     -40.6976      2.00000
      6     -40.6974      2.00000
      7     -12.5601      2.00000
      8     -12.5008      2.00000
      9      -9.6171      2.00000
     10      -9.5552      2.00000
     11      -9.4991      2.00000
     12      -9.4421      2.00000
     13      -9.4271      2.00000
     14      -9.4042      2.00000
     15      -5.3771      2.00000
     16      -5.1651      2.00000
     17      -2.4462      2.00000
     18      -2.3546      2.00000
     19      -2.2019      2.00000
     20      -2.1674      2.00000
     21      -2.0797      2.00000
     22      -1.9790      2.00000
     23      -0.2679      2.00000
     24      -0.2271      2.00000
     25      -0.0843      2.00000
     26      -0.0140      2.00000
     27       0.2881      2.00000
     28       0.5657      2.00000
     29       0.9677      2.00000
     30       1.0024      2.00000
     31       1.1781      2.00000
     32       1.3114      2.00000
     33       1.6502      2.00000
     34       1.7437      2.00000
     35       1.8428      2.00000
     36       1.9040      2.00000
     37       1.9715      2.00000
     38       2.1377      2.00000
     39       5.1032      0.00000
     40       5.4786      0.00000
     41       6.1898      0.00000
     42       6.4616      0.00000
     43       6.7950      0.00000
     44       6.9237      0.00000
     45       7.0220      0.00000
     46       7.2633      0.00000
     47       8.2523      0.00000
     48       8.5518      0.00000

 k-point    13 :       0.1250    0.3750    0.3750
  band No.  band energies     occupation 
      1     -41.0220      2.00000
      2     -41.0220      2.00000
      3     -40.6985      2.00000
      4     -40.6983      2.00000
      5     -40.6977      2.00000
      6     -40.6974      2.00000
      7     -12.5331      2.00000
      8     -12.5013      2.00000
      9      -9.6366      2.00000
     10      -9.5817      2.00000
     11      -9.5094      2.00000
     12      -9.4700      2.00000
     13      -9.4372      2.00000
     14      -9.4230      2.00000
     15      -5.2501      2.00000
     16      -5.1589      2.00000
     17      -2.3460      2.00000
     18      -2.2915      2.00000
     19      -2.2248      2.00000
     20      -2.1867      2.00000
     21      -2.0249      2.00000
     22      -1.9834      2.00000
     23      -0.2054      2.00000
     24      -0.1420      2.00000
     25      -0.0099      2.00000
     26       0.0595      2.00000
     27       0.3779      2.00000
     28       0.4351      2.00000
     29       0.8905      2.00000
     30       0.9504      2.00000
     31       1.0253      2.00000
     32       1.2579      2.00000
     33       1.5701      2.00000
     34       1.7078      2.00000
     35       1.7486      2.00000
     36       1.8701      2.00000
     37       2.0151      2.00000
     38       2.0597      2.00000
     39       5.0742      0.00000
     40       5.2850      0.00000
     41       6.3467      0.00000
     42       6.4646      0.00000
     43       6.6340      0.00000
     44       6.8070      0.00000
     45       6.8751      0.00000
     46       6.9626      0.00000
     47       8.2036      0.00000
     48       8.4606      0.00000

 k-point    14 :       0.3750    0.3750    0.3750
  band No.  band energies     occupation 
      1     -41.0220      2.00000
      2     -41.0220      2.00000
      3     -40.6983      2.00000
      4     -40.6981      2.00000
      5     -40.6978      2.00000
      6     -40.6976      2.00000
      7     -12.5219      2.00000
      8     -12.5087      2.00000
      9      -9.6143      2.00000
     10      -9.5755      2.00000
     11      -9.5491      2.00000
     12      -9.4827      2.00000
     13      -9.4464      2.00000
     14      -9.4190      2.00000
     15      -5.1623      2.00000
     16      -5.1242      2.00000
     17      -2.4018      2.00000
     18      -2.3658      2.00000
     19      -2.1595      2.00000
     20      -2.1541      2.00000
     21      -1.9830      2.00000
     22      -1.9623      2.00000
     23      -0.3183      2.00000
     24      -0.2293      2.00000
     25      -0.0868      2.00000
     26      -0.0242      2.00000
     27       0.5015      2.00000
     28       0.5547      2.00000
     29       0.8031      2.00000
     30       0.9080      2.00000
     31       1.0208      2.00000
     32       1.1227      2.00000
     33       1.5350      2.00000
     34       1.6054      2.00000
     35       1.7586      2.00000
     36       1.8167      2.00000
     37       2.0073      2.00000
     38       2.0782      2.00000
     39       5.3948      0.00000
     40       5.5553      0.00000
     41       6.4747      0.00000
     42       6.5219      0.00000
     43       6.7995      0.00000
     44       6.9189      0.00000
     45       7.1645      0.00000
     46       7.2446      0.00000
     47       8.1602      0.00000
     48       8.3395      0.00000

 k-point    15 :      -0.3750    0.3750    0.3750
  band No.  band energies     occupation 
      1     -41.0220      2.00000
      2     -41.0220      2.00000
      3     -40.6983      2.00000
      4     -40.6981      2.00000
      5     -40.6978      2.00000
      6     -40.6976      2.00000
      7     -12.5219      2.00000
      8     -12.5087      2.00000
      9      -9.6143      2.00000
     10      -9.5755      2.00000
     11      -9.5491      2.00000
     12      -9.4827      2.00000
     13      -9.4464      2.00000
     14      -9.4191      2.00000
     15      -5.1623      2.00000
     16      -5.1242      2.00000
     17      -2.4018      2.00000
     18      -2.3658      2.00000
     19      -2.1595      2.00000
     20      -2.1541      2.00000
     21      -1.9830      2.00000
     22      -1.9623      2.00000
     23      -0.3183      2.00000
     24      -0.2293      2.00000
     25      -0.0868      2.00000
     26      -0.0242      2.00000
     27       0.5015      2.00000
     28       0.5547      2.00000
     29       0.8031      2.00000
     30       0.9080      2.00000
     31       1.0208      2.00000
     32       1.1227      2.00000
     33       1.5350      2.00000
     34       1.6054      2.00000
     35       1.7586      2.00000
     36       1.8167      2.00000
     37       2.0073      2.00000
     38       2.0782      2.00000
     39       5.3948      0.00000
     40       5.5553      0.00000
     41       6.4747      0.00000
     42       6.5219      0.00000
     43       6.7995      0.00000
     44       6.9189      0.00000
     45       7.1645      0.00000
     46       7.2446      0.00000
     47       8.1602      0.00000
     48       8.3395      0.00000

 k-point    16 :      -0.1250    0.3750    0.3750
  band No.  band energies     occupation 
      1     -41.0220      2.00000
      2     -41.0220      2.00000
      3     -40.6985      2.00000
      4     -40.6983      2.00000
      5     -40.6977      2.00000
      6     -40.6974      2.00000
      7     -12.5331      2.00000
      8     -12.5013      2.00000
      9      -9.6366      2.00000
     10      -9.5817      2.00000
     11      -9.5093      2.00000
     12      -9.4700      2.00000
     13      -9.4372      2.00000
     14      -9.4230      2.00000
     15      -5.2501      2.00000
     16      -5.1589      2.00000
     17      -2.3460      2.00000
     18      -2.2915      2.00000
     19      -2.2248      2.00000
     20      -2.1867      2.00000
     21      -2.0249      2.00000
     22      -1.9834      2.00000
     23      -0.2054      2.00000
     24      -0.1420      2.00000
     25      -0.0099      2.00000
     26       0.0595      2.00000
     27       0.3779      2.00000
     28       0.4351      2.00000
     29       0.8905      2.00000
     30       0.9504      2.00000
     31       1.0253      2.00000
     32       1.2579      2.00000
     33       1.5701      2.00000
     34       1.7078      2.00000
     35       1.7486      2.00000
     36       1.8701      2.00000
     37       2.0151      2.00000
     38       2.0597      2.00000
     39       5.0742      0.00000
     40       5.2850      0.00000
     41       6.3467      0.00000
     42       6.4646      0.00000
     43       6.6340      0.00000
     44       6.8070      0.00000
     45       6.8751      0.00000
     46       6.9626      0.00000
     47       8.2036      0.00000
     48       8.4606      0.00000


--------------------------------------------------------------------------------------------------------


 soft charge-density along one line, spin component           1
         0         1         2         3         4         5         6         7         8         9
 total charge-density along one line
 
 pseudopotential strength for first ion, spin component:           1
 30.069  37.516   0.000  -0.000  -0.000   0.000  -0.000  -0.000
 37.516  46.813   0.000  -0.000  -0.000   0.000  -0.000  -0.000
  0.000   0.000   6.588   0.000  -0.000  10.201   0.000  -0.000
 -0.000  -0.000   0.000   6.587   0.000   0.000  10.200   0.000
 -0.000  -0.000  -0.000   0.000   6.587  -0.000   0.000  10.200
  0.000   0.000  10.201   0.000  -0.000  15.814   0.000  -0.000
 -0.000  -0.000   0.000  10.200   0.000   0.000  15.814   0.000
 -0.000  -0.000  -0.000   0.000  10.200  -0.000   0.000  15.813
 total augmentation occupancy for first ion, spin component:           1
 10.854  -6.177   0.009  -0.003  -0.000  -0.005  -0.000   0.000
 -6.177   3.957  -0.008   0.003   0.000   0.004   0.000  -0.000
  0.009  -0.008   4.360   0.066  -0.000  -1.452  -0.031   0.000
 -0.003   0.003   0.066   4.350   0.000  -0.031  -1.447  -0.000
 -0.000   0.000  -0.000   0.000   4.356   0.000  -0.000  -1.449
 -0.005   0.004  -1.452  -0.031   0.000   0.521   0.014  -0.000
 -0.000   0.000  -0.031  -1.447  -0.000   0.014   0.520   0.000
  0.000  -0.000   0.000  -0.000  -1.449  -0.000   0.000   0.521


------------------------ aborting loop because EDIFF is reached ----------------------------------------


    CHARGE:  cpu time    0.0230: real time    0.0231
    FORLOC:  cpu time    0.0009: real time    0.0009
    FORNL :  cpu time    0.0666: real time    0.0666
    STRESS:  cpu time    0.1922: real time    0.1922
    FORCOR:  cpu time    0.0033: real time    0.0033
    FORHAR:  cpu time    0.0024: real time    0.0024
    MIXING:  cpu time    0.0003: real time    0.0003
    OFIELD:  cpu time    0.0000: real time    0.0000

  FORCE on cell =-STRESS in cart. coord.  units (eV):
  Direction    XX          YY          ZZ          XY          YZ          ZX
  --------------------------------------------------------------------------------------
  Alpha Z    68.45114    68.45114    68.45114
  Ewald    -919.62427  -935.91238  -875.85928    -0.00300    -0.00001     0.00010
  Hartree   209.54313   199.46869   240.12251    -0.00094    -0.00002     0.00019
  E(xc)    -277.34152  -277.30876  -277.30600     0.00001     0.00000    -0.00000
  Local    -639.22492  -611.55733  -712.11070     0.00373     0.00007    -0.00099
  n-local   602.52663   601.64709   601.76222    -0.00025    -0.05674    -0.00014
  augment   -44.96048   -44.78955   -44.77661     0.00004     0.00000    -0.00005
  Kinetic  1000.65834  1000.11377   999.84535    -0.00017    -0.42300    -0.00002
  Fock        0.00000     0.00000     0.00000     0.00000     0.00000     0.00000
  -------------------------------------------------------------------------------------
  Total       0.02805     0.11269     0.12864    -0.00059    -0.00000     0.00000
  in kB       0.15588     0.62629     0.71494    -0.00327    -0.00000     0.00000
  external pressure =        0.50 kB  Pullay stress =        0.00 kB


 VOLUME and BASIS-vectors are now :
 -----------------------------------------------------------------------------
  energy-cutoff  :      420.00
  volume of cell :      288.28
      direct lattice vectors                 reciprocal lattice vectors
     7.516133029 -0.000055829  0.000004042     0.133047140 -0.000001104 -0.000000072
     0.000052993  6.384004260 -0.000000223     0.000001164  0.156641499  0.000000006
     0.000003233 -0.000000211  6.007916184    -0.000000090  0.000000006  0.166447062

  length of vectors
     7.516133029  6.384004260  6.007916184     0.133047140  0.156641499  0.166447062


 FORCES acting on ions
    electron-ion (+dipol)            ewald-force                    non-local-force                 convergence-correction
 -----------------------------------------------------------------------------------------------
   -.464E-03 -.320E+01 0.131E+00   0.439E-03 0.313E+01 -.905E-01   0.204E-03 0.907E-01 -.538E-01   -.356E-04 0.671E-03 -.191E-02
   0.615E-03 0.320E+01 0.131E+00   -.694E-03 -.313E+01 -.905E-01   -.204E-03 -.907E-01 -.538E-01   0.356E-04 -.671E-03 -.191E-02
   -.572E+02 -.338E+02 0.178E+02   0.591E+02 0.354E+02 -.186E+02   -.185E+01 -.160E+01 0.895E+00   0.589E-05 -.546E-02 -.343E-02
   0.572E+02 0.338E+02 0.178E+02   -.591E+02 -.354E+02 -.186E+02   0.185E+01 0.160E+01 0.895E+00   -.589E-05 0.546E-02 -.343E-02
   -.572E+02 0.338E+02 0.178E+02   0.591E+02 -.354E+02 -.186E+02   -.185E+01 0.160E+01 0.895E+00   0.422E-04 0.541E-02 -.344E-02
   0.572E+02 -.338E+02 0.178E+02   -.591E+02 0.354E+02 -.186E+02   0.185E+01 -.160E+01 0.895E+00   -.422E-04 -.541E-02 -.344E-02
   0.302E-03 -.976E+01 -.565E+02   -.146E-03 0.994E+01 0.593E+02   -.778E-04 -.170E+00 -.277E+01   -.684E-04 -.128E-02 0.667E-02
   -.423E-03 0.976E+01 -.565E+02   0.355E-03 -.994E+01 0.593E+02   0.748E-04 0.170E+00 -.277E+01   0.684E-04 0.128E-02 0.667E-02
   0.908E-03 0.629E+02 0.241E+02   -.931E-03 -.655E+02 -.250E+02   0.304E-05 0.251E+01 0.944E+00   0.286E-05 -.137E-01 0.526E-02
   -.931E-03 -.629E+02 0.241E+02   0.946E-03 0.655E+02 -.250E+02   -.202E-05 -.251E+01 0.944E+00   -.288E-05 0.137E-01 0.526E-02
   0.789E-03 0.147E+02 0.136E+01   -.730E-03 -.138E+02 -.113E+01   -.728E-04 -.848E+00 -.231E+00   0.156E-05 -.259E-04 -.173E-02
   -.746E-03 -.147E+02 0.136E+01   0.660E-03 0.138E+02 -.113E+01   0.725E-04 0.848E+00 -.231E+00   -.158E-05 0.259E-04 -.173E-02
   0.359E+01 0.468E+01 -.223E+01   -.338E+01 -.454E+01 0.214E+01   -.203E+00 -.147E+00 0.891E-01   -.194E-02 0.480E-02 -.561E-03
   -.359E+01 -.468E+01 -.223E+01   0.338E+01 0.454E+01 0.214E+01   0.203E+00 0.147E+00 0.892E-01   0.194E-02 -.480E-02 -.561E-03
   0.359E+01 -.468E+01 -.223E+01   -.338E+01 0.454E+01 0.214E+01   -.203E+00 0.147E+00 0.892E-01   -.188E-02 -.475E-02 -.555E-03
   -.359E+01 0.468E+01 -.223E+01   0.338E+01 -.454E+01 0.214E+01   0.203E+00 -.147E+00 0.892E-01   0.188E-02 0.475E-02 -.555E-03
 -----------------------------------------------------------------------------------------------
   -.113E-04 0.564E-06 0.288E+00   -.355E-13 -.355E-13 0.120E-13   -.158E-06 0.103E-07 -.293E+00   -.422E-07 0.564E-10 0.587E-03
 
 
 POSITION                                       TOTAL-FORCE (eV/Angst)
 -----------------------------------------------------------------------------------
      0.00004      4.34922      2.43781         0.000196      0.024386     -0.014504
      3.75808      2.03475      5.44177        -0.000196     -0.024386     -0.014504
      1.66926      5.30403      1.76935         0.010922      0.011936     -0.000675
      2.08886      1.07994      4.77331        -0.010922     -0.011936     -0.000675
      5.42727      1.07991      4.77330         0.011114     -0.012025     -0.000704
      5.84699      5.30401      1.76934        -0.011114      0.012025     -0.000704
      0.00005      4.40245      4.47190        -0.000033      0.002733      0.033534
      3.75808      1.98152      1.46794         0.000033     -0.002733      0.033534
      0.00002      2.44047      1.74732        -0.000013     -0.019596     -0.014484
      3.75810      3.94350      4.75128         0.000013      0.019596     -0.014484
      7.51614      2.22438      5.36595         0.000001     -0.000508     -0.005954
      3.75812      4.15954      2.36199        -0.000001      0.000508     -0.005954
      1.82363      1.17333      2.43915        -0.003109      0.002876      0.001403
      1.93449      5.21064      5.44311         0.003109     -0.002876      0.001403
      5.58173      5.21061      5.44310        -0.003087     -0.002897      0.001384
      5.69252      1.17331      2.43915         0.003087      0.002897      0.001384
 -----------------------------------------------------------------------------------
    total drift:                               -0.000011      0.000001     -0.004412


--------------------------------------------------------------------------------------------------------



  FREE ENERGIE OF THE ION-ELECTRON SYSTEM (eV)
  ---------------------------------------------------
  free  energy   TOTEN  =       -77.41312892 eV

  energy  without entropy=      -77.41312892  energy(sigma->0) =      -78.41312892
 
 d Force =-0.4101281E-05[-0.666E-04, 0.584E-04]  d Energy =-0.3994205E-04 0.358E-04
 d Force =-0.2356608E+00[-0.236E+00,-0.235E+00]  d Ewald  = 0.3508701E+00-0.587E+00


--------------------------------------------------------------------------------------------------------


    POTLOK:  cpu time    0.0041: real time    0.0041


--------------------------------------------------------------------------------------------------------




--------------------------------------------------------------------------------------------------------


  
 reached required accuracy - stopping structural energy minimisation
     LOOP+:  cpu time    1.3290: real time    1.3424
    4ORBIT:  cpu time    0.0000: real time    0.0000
 BZINTS: Fermi energy:  2.196652; 76.000000 electrons
         Band energy:-669.946479;  BLOECHL correction:  0.000000

 total amount of memory used by VASP MPI-rank0    34472. kBytes
=======================================================================

   base      :      30000. kBytes
   nonlr-proj:       1295. kBytes
   fftplans  :        733. kBytes
   grid      :       1311. kBytes
   one-center:          3. kBytes
   wavefun   :       1130. kBytes
 
  
  
 General timing and accounting informations for this job:
 ========================================================
  
                  Total CPU time used (sec):       41.748
                            User time (sec):       41.204
                          System time (sec):        0.544
                         Elapsed time (sec):       43.733
  
                   Maximum memory used (kb):      201972.
                   Average memory used (kb):           0.
  
                          Minor page faults:        50268
                          Major page faults:          117
                 Voluntary context switches:         2473
