 vasp.5.4.4.18Apr17-6-g9f103f2a35 (build Feb 28 2020 14:15:47) complex          
  
 executed on             LinuxIFC date 2022.08.17  22:55:26
 running on   64 total cores
 distrk:  each k-point on   64 cores,    1 groups
 distr:  one band on NCORES_PER_BAND=  16 cores,    4 groups


--------------------------------------------------------------------------------------------------------


 INCAR:
 POTCAR:    PAW P 26Mar2009                       
 POTCAR:    PAW S 27Mar2009                       
 POTCAR:    PAW Li_sv 10Sep2004                   
 POTCAR:    PAW P 26Mar2009                       
   VRHFIN =P : s2p3                                                             
   LEXCH  = CA                                                                  
   EATOM  =   176.5121 eV,   12.9733 Ry                                         
                                                                                
   TITEL  = PAW P 26Mar2009                                                     
   LULTRA =        F    use ultrasoft PP ?                                      
   IUNSCR =        1    unscreen: 0-lin 1-nonlin 2-no                           
   RPACOR =    1.500    partial core radius                                     
   POMASS =   30.974; ZVAL   =    5.000    mass and valenz                      
   RCORE  =    1.900    outmost cutoff radius                                   
   RWIGS  =    2.330; RWIGS  =    1.233    wigner-seitz radius (au A)           
   ENMAX  =  255.155; ENMIN  =  191.366 eV                                      
   ICORE  =        2    local potential                                         
   LCOR   =        T    correct aug charges                                     
   LPAW   =        T    paw PP                                                  
   EAUG   =  342.924                                                            
   DEXC   =    0.000                                                            
   RMAX   =    1.935    core radius for proj-oper                               
   RAUG   =    1.300    factor for augmentation sphere                          
   RDEP   =    1.931    radius for radial grids                                 
   RDEPT  =    1.780    core radius for aug-charge                              
                                                                                
   Atomic configuration                                                         
    6 entries                                                                   
     n  l   j            E        occ.                                          
     1  0  0.50     -2072.7761   2.0000                                         
     2  0  0.50      -172.9483   2.0000                                         
     2  1  1.50      -124.4644   6.0000                                         
     3  0  0.50       -14.0086   2.0000                                         
     3  1  0.50        -5.6037   3.0000                                         
     3  2  1.50        -6.8029   0.0000                                         
   Description                                                                  
     l       E           TYP  RCUT    TYP  RCUT                                 
     0    -14.0086211     23  1.900                                             
     0    -11.8189335     23  1.900                                             
     1     -5.6037292     23  1.900                                             
     1     -0.3527308     23  1.900                                             
     2     -6.8029130     23  1.900                                             
  local pseudopotential read in
  partial core-charges read in
  partial kinetic energy density read in
  atomic valenz-charges read in
  non local Contribution for L=           0  read in
    real space projection operators read in
  non local Contribution for L=           0  read in
    real space projection operators read in
  non local Contribution for L=           1  read in
    real space projection operators read in
  non local Contribution for L=           1  read in
    real space projection operators read in
    PAW grid and wavefunctions read in
 
   number of l-projection  operators is LMAX  =           4
   number of lm-projection operators is LMMAX =           8
 
 POTCAR:    PAW S 27Mar2009                       
   VRHFIN =S : s2p4                                                             
   LEXCH  = CA                                                                  
   EATOM  =   277.3745 eV,   20.3864 Ry                                         
                                                                                
   TITEL  = PAW S 27Mar2009                                                     
   LULTRA =        F    use ultrasoft PP ?                                      
   IUNSCR =        1    unscreen: 0-lin 1-nonlin 2-no                           
   RPACOR =    1.500    partial core radius                                     
   POMASS =   32.066; ZVAL   =    6.000    mass and valenz                      
   RCORE  =    1.900    outmost cutoff radius                                   
   RWIGS  =    2.200; RWIGS  =    1.164    wigner-seitz radius (au A)           
   ENMAX  =  258.602; ENMIN  =  193.952 eV                                      
   ICORE  =        2    local potential                                         
   LCOR   =        T    correct aug charges                                     
   LPAW   =        T    paw PP                                                  
   EAUG   =  335.092                                                            
   DEXC   =    0.000                                                            
   RMAX   =    1.942    core radius for proj-oper                               
   RAUG   =    1.300    factor for augmentation sphere                          
   RDEP   =    1.954    radius for radial grids                                 
   RDEPT  =    1.744    core radius for aug-charge                              
                                                                                
   Atomic configuration                                                         
    6 entries                                                                   
     n  l   j            E        occ.                                          
     1  0  0.50     -2393.1495   2.0000                                         
     2  0  0.50      -210.5411   2.0000                                         
     2  1  1.50      -156.4410   6.0000                                         
     3  0  0.50       -17.2664   2.0000                                         
     3  1  0.50        -7.1129   4.0000                                         
     3  2  1.50        -8.1635   0.0000                                         
   Description                                                                  
     l       E           TYP  RCUT    TYP  RCUT                                 
     0    -17.2664422     23  1.900                                             
     0    -15.8420823     23  1.900                                             
     1     -7.1129072     23  1.900                                             
     1     -2.8398274     23  1.900                                             
     2     -8.1634956     23  1.900                                             
  local pseudopotential read in
  partial core-charges read in
  partial kinetic energy density read in
  atomic valenz-charges read in
  non local Contribution for L=           0  read in
    real space projection operators read in
  non local Contribution for L=           0  read in
    real space projection operators read in
  non local Contribution for L=           1  read in
    real space projection operators read in
  non local Contribution for L=           1  read in
    real space projection operators read in
    PAW grid and wavefunctions read in
 
   number of l-projection  operators is LMAX  =           4
   number of lm-projection operators is LMMAX =           8
 
 POTCAR:    PAW Li_sv 10Sep2004                   
   VRHFIN =Li: 1s2s                                                             
   LEXCH  = CA                                                                  
   EATOM  =   199.5738 eV,   14.6683 Ry                                         
                                                                                
   TITEL  = PAW Li_sv 10Sep2004                                                 
   LULTRA =        F    use ultrasoft PP ?                                      
   IUNSCR =        0    unscreen: 0-lin 1-nonlin 2-no                           
   RPACOR =    0.000    partial core radius                                     
   POMASS =    7.010; ZVAL   =    3.000    mass and valenz                      
   RCORE  =    1.700    outmost cutoff radius                                   
   RWIGS  =    2.050; RWIGS  =    1.085    wigner-seitz radius (au A)           
   ENMAX  =  498.387; ENMIN  =  373.790 eV                                      
   ICORE  =        2    local potential                                         
   LCOR   =        T    correct aug charges                                     
   LPAW   =        T    paw PP                                                  
   EAUG   =  628.945                                                            
   RMAX   =    1.732    core radius for proj-oper                               
   RAUG   =    1.300    factor for augmentation sphere                          
   RDEP   =    1.728    radius for radial grids                                 
   RDEPT  =    1.329    core radius for aug-charge                              
                                                                                
   Atomic configuration                                                         
    4 entries                                                                   
     n  l   j            E        occ.                                          
     1  0  0.50       -51.0884   2.0000                                         
     2  0  0.50        -2.8766   1.0000                                         
     2  1  0.50        -2.8708   0.0000                                         
     3  2  1.50        -1.3606   0.0000                                         
   Description                                                                  
     l       E           TYP  RCUT    TYP  RCUT                                 
     0    -51.0884324     23  1.400                                             
     0     -2.8766458     23  1.700                                             
     1     -2.8708293     23  1.400                                             
     2     -1.3605826     23  1.400                                             
  local pseudopotential read in
  atomic valenz-charges read in
  non local Contribution for L=           0  read in
    real space projection operators read in
  non local Contribution for L=           0  read in
    real space projection operators read in
  non local Contribution for L=           1  read in
    real space projection operators read in
    PAW grid and wavefunctions read in
 
   number of l-projection  operators is LMAX  =           3
   number of lm-projection operators is LMMAX =           5
 
 Optimization of the real space projectors (new method)

 maximal supplied QI-value         = 19.84
 optimisation between [QCUT,QGAM] = [ 10.32, 20.83] = [ 29.81,121.55] Ry 
 Optimized for a Real-space Cutoff    1.39 Angstroem

   l    n(q)    QCUT    max X(q) W(low)/X(q) W(high)/X(q)  e(spline) 
   0      9    10.318   158.476    0.64E-04    0.80E-04    0.60E-07
   0      9    10.318   128.097    0.63E-04    0.79E-04    0.60E-07
   1      8    10.318    73.217    0.18E-03    0.19E-03    0.20E-06
   1      8    10.318    48.248    0.18E-03    0.19E-03    0.19E-06
 Optimization of the real space projectors (new method)

 maximal supplied QI-value         = 19.84
 optimisation between [QCUT,QGAM] = [ 10.32, 20.83] = [ 29.81,121.55] Ry 
 Optimized for a Real-space Cutoff    1.39 Angstroem

   l    n(q)    QCUT    max X(q) W(low)/X(q) W(high)/X(q)  e(spline) 
   0      9    10.318   180.455    0.73E-04    0.81E-04    0.62E-07
   0      9    10.318   157.733    0.72E-04    0.81E-04    0.62E-07
   1      8    10.318    66.201    0.18E-03    0.20E-03    0.20E-06
   1      8    10.318    49.617    0.18E-03    0.20E-03    0.20E-06
 Optimization of the real space projectors (new method)

 maximal supplied QI-value         = 22.11
 optimisation between [QCUT,QGAM] = [ 10.39, 20.78] = [ 30.24,120.96] Ry 
 Optimized for a Real-space Cutoff    1.20 Angstroem

   l    n(q)    QCUT    max X(q) W(low)/X(q) W(high)/X(q)  e(spline) 
   0      7    10.392    10.443    0.77E-04    0.41E-05    0.30E-07
   0      7    10.392     8.514    0.20E-03    0.36E-04    0.67E-07
   1      7    10.392     5.406    0.20E-03    0.20E-03    0.12E-06
  PAW P 26Mar2009                       :
 energy of atom  1       EATOM= -176.5121
 kinetic energy error for atom=    0.0021 (will be added to EATOM!!)
  PAW S 27Mar2009                       :
 energy of atom  2       EATOM= -277.3745
 kinetic energy error for atom=    0.0041 (will be added to EATOM!!)
  PAW Li_sv 10Sep2004                   :
 energy of atom  3       EATOM= -199.5738
 kinetic energy error for atom=    0.0564 (will be added to EATOM!!)
 
 
 POSCAR: Good luck                               
  positions in cartesian coordinates
  No initial velocities read in
 exchange correlation table for  LEXCH =        2
   RHO(1)=    0.500       N(1)  =     2000
   RHO(2)=  100.500       N(2)  =     4000
 


--------------------------------------------------------------------------------------------------------


 ion  position               nearest neighbor table
   1  0.000  0.313  0.281-   7 2.03   6 2.04   3 2.04   9 2.04
   2  0.500  0.687  0.781-   8 2.03   5 2.04   4 2.04  10 2.04
   3  0.223  0.174  0.155-   1 2.04  13 2.24  14 2.44  12 2.47
   4  0.277  0.826  0.655-   2 2.04  14 2.24  13 2.44  11 2.47
   5  0.723  0.826  0.655-   2 2.04  15 2.24  16 2.44  11 2.47
   6  0.777  0.174  0.155-   1 2.04  16 2.24  15 2.44  12 2.47
   7  0.000  0.620  0.196-   1 2.03  15 2.26  14 2.26  11 2.56
   8  0.500  0.380  0.696-   2 2.03  13 2.26  16 2.26  12 2.56
   9  0.000  0.275  0.617-   1 2.04  16 2.26  13 2.26  11 2.55
  10  0.500  0.725  0.117-   2 2.04  14 2.26  15 2.26  12 2.55
  11  0.000  0.646  0.771-   5 2.47   4 2.47   9 2.55   7 2.56
  12  0.500  0.354  0.271-   3 2.47   6 2.47  10 2.55   8 2.56
  13  0.259  0.186  0.785-   3 2.24   8 2.26   9 2.26   4 2.44
  14  0.241  0.814  0.285-   4 2.24   7 2.26  10 2.26   3 2.44
  15  0.759  0.814  0.285-   5 2.24   7 2.26  10 2.26   6 2.44
  16  0.741  0.186  0.785-   6 2.24   8 2.26   9 2.26   5 2.44
 
  LATTYP: Found a simple orthorhombic cell.
 ALAT       =     6.0118368588
 B/A-ratio  =     1.0659613938
 C/A-ratio  =     1.2444150616
  
  Lattice vectors:
  
 A1 = (   0.0000000000,   0.0000000000,  -6.0118368588)
 A2 = (   0.0000000000,  -6.4083859974,   0.0000000000)
 A3 = (  -7.4812203350,   0.0000000000,   0.0000000000)


Analysis of symmetry for initial positions (statically):
=====================================================================
 Subroutine PRICEL returns:
 Original cell was already a primitive cell.
 

 Routine SETGRP: Setting up the symmetry group for a 
 simple orthorhombic supercell.


 Subroutine GETGRP returns: Found  4 space group operations
 (whereof  2 operations were pure point group operations)
 out of a pool of  8 trial point group operations.


The static configuration has the point symmetry C_1h.
 The point group associated with its full space group is C_2v.


Analysis of symmetry for dynamics (positions and initial velocities):
=====================================================================
 Subroutine PRICEL returns:
 Original cell was already a primitive cell.
 

 Routine SETGRP: Setting up the symmetry group for a 
 simple orthorhombic supercell.


 Subroutine GETGRP returns: Found  4 space group operations
 (whereof  2 operations were pure point group operations)
 out of a pool of  8 trial point group operations.


The dynamic configuration has the point symmetry C_1h.
 The point group associated with its full space group is C_2v.


 Subroutine INISYM returns: Found  4 space group operations
 (whereof  2 operations are pure point group operations),
 and found     1 'primitive' translations

 
 
 KPOINTS: Automatic mesh                          

Automatic generation of k-mesh.
Space group operators:
 irot       det(A)        alpha          n_x          n_y          n_z        tau_x        tau_y        tau_z
    1     1.000000     0.000001     1.000000     0.000000     0.000000     0.000000     0.000000     0.000000
    2    -1.000000   180.000000     1.000000     0.000000     0.000000     0.000000     0.000000     0.000000
    3    -1.000000   180.000000     0.000000     1.000000     0.000000    -0.500000     0.000000    -0.500000
    4     1.000000   180.000000     0.000000     0.000000     1.000000    -0.500000     0.000000    -0.500000
 
 Subroutine IBZKPT returns following result:
 ===========================================
 
 Found      8 irreducible k-points:
 
 Following reciprocal coordinates:
            Coordinates               Weight
  0.000000  0.000000  0.000000      1.000000
  0.333333  0.000000  0.000000      2.000000
  0.000000  0.333333  0.000000      2.000000
  0.333333  0.333333  0.000000      4.000000
  0.000000  0.000000  0.333333      2.000000
  0.333333  0.000000  0.333333      4.000000
  0.000000  0.333333  0.333333      4.000000
  0.333333  0.333333  0.333333      8.000000
 
 Following cartesian coordinates:
            Coordinates               Weight
  0.000000  0.000000  0.000000      1.000000
  0.044556  0.000000  0.000000      2.000000
  0.000000  0.052015  0.000000      2.000000
  0.044556  0.052015  0.000000      4.000000
  0.000000  0.000000  0.055446      2.000000
  0.044556  0.000000  0.055446      4.000000
  0.000000  0.052015  0.055446      4.000000
  0.044556  0.052015  0.055446      8.000000
 
 TETIRR: Found     70 inequivalent tetrahedra from      162


--------------------------------------------------------------------------------------------------------




 Dimension of arrays:
   k-points           NKPTS =      8   k-points in BZ     NKDIM =      8   number of bands    NBANDS=     48
   number of dos      NEDOS =    301   number of ions     NIONS =     16
   non local maximal  LDIM  =      4   non local SUM 2l+1 LMDIM =      8
   total plane-waves  NPLWV =  96000
   max r-space proj   IRMAX =   3778   max aug-charges    IRDMAX=  10692
   dimension x,y,z NGX =    50 NGY =   48 NGZ =   40
   dimension x,y,z NGXF=   100 NGYF=   96 NGZF=   80
   support grid    NGXF=   100 NGYF=   96 NGZF=   80
   ions per type =               2   8   6
   NGX,Y,Z   is equivalent  to a cutoff of  11.11, 12.45, 11.06 a.u.
   NGXF,Y,Z  is equivalent  to a cutoff of  22.22, 24.90, 22.12 a.u.

 SYSTEM =  unknown system                          
 POSCAR =  Good luck                               

 Startparameter for this run:
   NWRITE =      2    write-flag & timer
   PREC   = accura    normal or accurate (medium, high low for compatibility)
   ISTART =      0    job   : 0-new  1-cont  2-samecut
   ICHARG =      2    charge: 1-file 2-atom 10-const
   ISPIN  =      1    spin polarized calculation?
   LNONCOLLINEAR =      F non collinear calculations
   LSORBIT =      F    spin-orbit coupling
   INIWAV =      1    electr: 0-lowe 1-rand  2-diag
   LASPH  =      F    aspherical Exc in radial PAW
   METAGGA=      F    non-selfconsistent MetaGGA calc.

 Electronic Relaxation 1
   ENCUT  =  420.0 eV  30.87 Ry    5.56 a.u.  12.50 10.71 10.05*2*pi/ulx,y,z
   ENINI  =  420.0     initial cutoff
   ENAUG  =  628.9 eV  augmentation charge cutoff
   NELM   =    100;   NELMIN=  2; NELMDL= -5     # of ELM steps 
   EDIFF  = 0.2E-04   stopping-criterion for ELM
   LREAL  =      T    real-space projection
   NLSPLINE    = F    spline interpolate recip. space projectors
   LCOMPAT=      F    compatible to vasp.4.4
   GGA_COMPAT  = T    GGA compatible to vasp.4.4-vasp.4.6
   LMAXPAW     = -100 max onsite density
   LMAXMIX     =    2 max onsite mixed and CHGCAR
   VOSKOWN=      0    Vosko Wilk Nusair interpolation
   ROPT   =   -0.00025  -0.00025  -0.00025
 Ionic relaxation
   EDIFFG = 0.2E-03   stopping-criterion for IOM
   NSW    =      0    number of steps for IOM
   NBLOCK =      1;   KBLOCK =      1    inner block; outer block 
   IBRION =     -1    ionic relax: 0-MD 1-quasi-New 2-CG
   NFREE  =      1    steps in history (QN), initial steepest desc. (CG)
   ISIF   =      7    stress and relaxation
   IWAVPR =     10    prediction:  0-non 1-charg 2-wave 3-comb
   ISYM   =      2    0-nonsym 1-usesym 2-fastsym
   LCORR  =      T    Harris-Foulkes like correction to forces

   POTIM  = 0.5000    time-step for ionic-motion
   TEIN   =    0.0    initial temperature
   TEBEG  =    0.0;   TEEND  =   0.0 temperature during run
   SMASS  =  -3.00    Nose mass-parameter (am)
   estimated Nose-frequenzy (Omega)   =  0.10E-29 period in steps =****** mass=  -0.128E-26a.u.
   SCALEE = 1.0000    scale energy and forces
   NPACO  =    256;   APACO  = 16.0  distance and # of slots for P.C.
   PSTRESS=    0.0 pullay stress

  Mass of Ions in am
   POMASS =  30.97 32.07  7.01
  Ionic Valenz
   ZVAL   =   5.00  6.00  3.00
  Atomic Wigner-Seitz radii
   RWIGS  =  -1.00 -1.00 -1.00
  virtual crystal weights 
   VCA    =   1.00  1.00  1.00
   NELECT =      76.0000    total number of electrons
   NUPDOWN=      -1.0000    fix difference up-down

 DOS related values:
   EMIN   =  10.00;   EMAX   =-10.00  energy-range for DOS
   EFERMI =   0.00
   ISMEAR =    -5;   SIGMA  =   0.20  broadening in eV -4-tet -1-fermi 0-gaus

 Electronic relaxation 2 (details)
   IALGO  =     68    algorithm
   LDIAG  =      T    sub-space diagonalisation (order eigenvalues)
   LSUBROT=      F    optimize rotation matrix (better conditioning)
   TURBO    =      0    0=normal 1=particle mesh
   IRESTART =      0    0=no restart 2=restart with 2 vectors
   NREBOOT  =      0    no. of reboots
   NMIN     =      0    reboot dimension
   EREF     =   0.00    reference energy to select bands
   IMIX   =      4    mixing-type and parameters
     AMIX     =   0.40;   BMIX     =  1.00
     AMIX_MAG =   1.60;   BMIX_MAG =  1.00
     AMIN     =   0.10
     WC   =   100.;   INIMIX=   1;  MIXPRE=   1;  MAXMIX= -45

 Intra band minimization:
   WEIMIN = 0.0000     energy-eigenvalue tresh-hold
   EBREAK =  0.10E-06  absolut break condition
   DEPER  =   0.30     relativ break condition  

   TIME   =   0.40     timestep for ELM

  volume/ion in A,a.u.               =      18.01       121.56
  Fermi-wavevector in a.u.,A,eV,Ry     =   1.049792  1.983819 14.994481  1.102063
  Thomas-Fermi vector in A             =   2.184769
 
 Write flags
   LWAVE        =      F    write WAVECAR
   LDOWNSAMPLE  =      F    k-point downsampling of WAVECAR
   LCHARG       =      F    write CHGCAR
   LVTOT        =      F    write LOCPOT, total local potential
   LVHAR        =      F    write LOCPOT, Hartree potential only
   LELF         =      F    write electronic localiz. function (ELF)
   LORBIT       =      0    0 simple, 1 ext, 2 COOP (PROOUT), +10 PAW based schemes


 Dipole corrections
   LMONO  =      F    monopole corrections only (constant potential shift)
   LDIPOL =      F    correct potential (dipole corrections)
   IDIPOL =      0    1-x, 2-y, 3-z, 4-all directions 
   EPSILON=  1.0000000 bulk dielectric constant

 Exchange correlation treatment:
   GGA     =    --    GGA type
   LEXCH   =     2    internal setting for exchange type
   VOSKOWN=      0    Vosko Wilk Nusair interpolation
   LHFCALC =     F    Hartree Fock is set to
   LHFONE  =     F    Hartree Fock one center treatment
   AEXX    =    0.0000 exact exchange contribution

 Linear response parameters
   LEPSILON=     F    determine dielectric tensor
   LRPA    =     F    only Hartree local field effects (RPA)
   LNABLA  =     F    use nabla operator in PAW spheres
   LVEL    =     F    velocity operator in full k-point grid
   LINTERFAST=   F  fast interpolation
   KINTER  =     0    interpolate to denser k-point grid
   CSHIFT  =0.1000    complex shift for real part using Kramers Kronig
   OMEGAMAX=  -1.0    maximum frequency
   DEG_THRESHOLD= 0.2000000E-02 threshold for treating states as degnerate
   RTIME   =   -0.100 relaxation time in fs
  (WPLASMAI=    0.000 imaginary part of plasma frequency in eV, 0.658/RTIME)
   DFIELD  = 0.0000000 0.0000000 0.0000000 field for delta impulse in time
 
 Orbital magnetization related:
   ORBITALMAG=     F  switch on orbital magnetization
   LCHIMAG   =     F  perturbation theory with respect to B field
   DQ        =  0.001000  dq finite difference perturbation B field
   LLRAUG    =     F  two centre corrections for induced B field



--------------------------------------------------------------------------------------------------------


 Static calculation
 charge density and potential will be updated during run
 non-spin polarized calculation
 RMM-DIIS sequential band-by-band and
  variant of blocked Davidson during initial phase
 perform sub-space diagonalisation
    before iterative eigenvector-optimisation
 modified Broyden-mixing scheme, WC =      100.0
 initial mixing is a Kerker type mixing with AMIX =  0.4000 and BMIX =      1.0000
 Hartree-type preconditioning will be used
 using additional bands           10
 real space projection scheme for non local part
 use partial core corrections
 calculate Harris-corrections to forces 
   (improved forces if not selfconsistent)
 use of overlap-Matrix (Vanderbilt PP)
 Fermi weights with tetrahedron method with Bloechl corrections


--------------------------------------------------------------------------------------------------------


  energy-cutoff  :      420.00
  volume of cell :      288.22
      direct lattice vectors                 reciprocal lattice vectors
     7.481220335  0.000000000  0.000000000     0.133668032  0.000000000  0.000000000
     0.000000000  6.408385997  0.000000000     0.000000000  0.156045532  0.000000000
     0.000000000  0.000000000  6.011836859     0.000000000  0.000000000  0.166338512

  length of vectors
     7.481220335  6.408385997  6.011836859     0.133668032  0.156045532  0.166338512


 
 k-points in units of 2pi/SCALE and weight: Automatic mesh                          
   0.00000000  0.00000000  0.00000000       0.037
   0.04455601  0.00000000  0.00000000       0.074
   0.00000000  0.05201518  0.00000000       0.074
   0.04455601  0.05201518  0.00000000       0.148
   0.00000000  0.00000000  0.05544617       0.074
   0.04455601  0.00000000  0.05544617       0.148
   0.00000000  0.05201518  0.05544617       0.148
   0.04455601  0.05201518  0.05544617       0.296
 
 k-points in reciprocal lattice and weights: Automatic mesh                          
   0.00000000  0.00000000  0.00000000       0.037
   0.33333333  0.00000000  0.00000000       0.074
   0.00000000  0.33333333  0.00000000       0.074
   0.33333333  0.33333333  0.00000000       0.148
   0.00000000  0.00000000  0.33333333       0.074
   0.33333333  0.00000000  0.33333333       0.148
   0.00000000  0.33333333  0.33333333       0.148
   0.33333333  0.33333333  0.33333333       0.296
 
 position of ions in fractional coordinates (direct lattice) 
   0.00000000  0.31258115  0.28057037
   0.50000000  0.68741885  0.78057037
   0.22295342  0.17390709  0.15465165
   0.27704658  0.82609291  0.65465165
   0.72295342  0.82609291  0.65465165
   0.77704658  0.17390709  0.15465165
   0.00000000  0.61971511  0.19649430
   0.50000000  0.38028489  0.69649430
   0.00000000  0.27458745  0.61694359
   0.50000000  0.72541255  0.11694359
   0.00000000  0.64587833  0.77090830
   0.50000000  0.35412167  0.27090830
   0.25879456  0.18604089  0.78499801
   0.24120544  0.81395911  0.28499801
   0.75879456  0.81395911  0.28499801
   0.74120544  0.18604089  0.78499801
 
 position of ions in cartesian coordinates  (Angst):
   0.00000000  2.00314069  1.68674329
   3.74061017  4.40524530  4.69266172
   1.66796364  1.11446378  0.92974051
   2.07264653  5.29392222  3.93565894
   5.40857380  5.29392222  3.93565894
   5.81325670  1.11446378  0.92974051
   0.00000000  3.97137367  1.18129167
   3.74061017  2.43701233  4.18721010
   0.00000000  1.75966235  3.70896422
   3.74061017  4.64872365  0.70304579
   0.00000000  4.13903765  4.63457492
   3.74061017  2.26934835  1.62865649
   1.93609912  1.19222180  4.71927996
   1.80451105  5.21616419  1.71336153
   5.67670929  5.21616419  1.71336153
   5.54512122  1.19222180  4.71927996
 


--------------------------------------------------------------------------------------------------------


 k-point  1 :   0.0000 0.0000 0.0000  plane waves:    5625
 k-point  2 :   0.3333 0.0000 0.0000  plane waves:    5623
 k-point  3 :   0.0000 0.3333 0.0000  plane waves:    5624
 k-point  4 :   0.3333 0.3333 0.0000  plane waves:    5612
 k-point  5 :   0.0000 0.0000 0.3333  plane waves:    5654
 k-point  6 :   0.3333 0.0000 0.3333  plane waves:    5615
 k-point  7 :   0.0000 0.3333 0.3333  plane waves:    5648
 k-point  8 :   0.3333 0.3333 0.3333  plane waves:    5628

 maximum and minimum number of plane-waves per node :       366      340

 maximum number of plane-waves:      5654
 maximum index in each direction: 
   IXMAX=   12   IYMAX=   10   IZMAX=   10
   IXMIN=  -12   IYMIN=  -11   IZMIN=  -10


 real space projection operators:
  total allocation   :       2798.25 KBytes
  max/ min on nodes  :        230.91        157.20


 parallel 3D FFT for wavefunctions:
    minimum data exchange during FFTs selected (reduces bandwidth)
 parallel 3D FFT for charge:
    minimum data exchange during FFTs selected (reduces bandwidth)


 total amount of memory used by VASP MPI-rank0    33919. kBytes
=======================================================================

   base      :      30000. kBytes
   nonlr-proj:       1300. kBytes
   fftplans  :        734. kBytes
   grid      :       1311. kBytes
   one-center:          3. kBytes
   wavefun   :        571. kBytes
 
     INWAV:  cpu time    0.0000: real time    0.0000
 Broyden mixing: mesh for mixing (old mesh)
   NGX = 25   NGY = 21   NGZ = 21
  (NGX  =100   NGY  = 96   NGZ  = 80)
  gives a total of  11025 points

 initial charge density was supplied:
 charge density of overlapping atoms calculated
 number of electron      76.0000000 magnetization 
 keeping initial charge density in first step


--------------------------------------------------------------------------------------------------------


 Maximum index for non-local projection operator          578
 Maximum index for augmentation-charges          592 (set IRDMAX)


--------------------------------------------------------------------------------------------------------


 First call to EWALD:  gamma=   0.268
 Maximum number of real-space cells 2x 3x 3
 Maximum number of reciprocal cells 3x 3x 3

    FEWALD:  cpu time    0.0023: real time    0.0023


--------------------------------------- Iteration      1(   1)  ---------------------------------------


    POTLOK:  cpu time    0.0076: real time    0.0160
    SETDIJ:  cpu time    0.0048: real time    0.0060
     EDDAV:  cpu time    0.2066: real time    0.2506
 BZINTS: Fermi energy: 15.299487; 76.000000 electrons
         Band energy:-123.044016;  BLOECHL correction: -0.087819
       DOS:  cpu time    0.0041: real time    0.0083
    --------------------------------------------
      LOOP:  cpu time    0.2231: real time    0.2809

 eigenvalue-minimisations  :   768
 total energy-change (2. order) : 0.5011174E+03  (-0.2866055E+04)
 number of electron      76.0000000 magnetization 
 augmentation part       76.0000000 magnetization 

 Free energy of the ion-electron system (eV)
  ---------------------------------------------------
  alpha Z        PSCENC =        68.46425725
  Ewald energy   TEWEN  =     -2728.27293650
  -Hartree energ DENC   =      -620.08040959
  -exchange      EXHF   =         0.00000000
  -V(xc)+E(xc)   XCENC  =       181.86035411
  PAW double counting   =      2494.22442938    -2541.12215007
  entropy T*S    EENTRO =         0.00000000
  eigenvalues    EBANDS =      -123.04401634
  atomic energy  EATOM  =      3769.08782378
  Solvation  Ediel_sol  =         0.00000000
  ---------------------------------------------------
  free energy    TOTEN  =       501.11735201 eV

  energy without entropy =      501.11735201  energy(sigma->0) =      501.11735201


--------------------------------------------------------------------------------------------------------




--------------------------------------- Iteration      1(   2)  ---------------------------------------


     EDDAV:  cpu time    0.2008: real time    0.2071
 BZINTS: Fermi energy:  5.112570; 76.000000 electrons
         Band energy:-634.589748;  BLOECHL correction:  0.000000
       DOS:  cpu time    0.0007: real time    0.0007
    --------------------------------------------
      LOOP:  cpu time    0.2015: real time    0.2078

 eigenvalue-minimisations  :   912
 total energy-change (2. order) :-0.5115457E+03  (-0.4875971E+03)
 number of electron      76.0000000 magnetization 
 augmentation part       76.0000000 magnetization 

 Free energy of the ion-electron system (eV)
  ---------------------------------------------------
  alpha Z        PSCENC =        68.46425725
  Ewald energy   TEWEN  =     -2728.27293650
  -Hartree energ DENC   =      -620.08040959
  -exchange      EXHF   =         0.00000000
  -V(xc)+E(xc)   XCENC  =       181.86035411
  PAW double counting   =      2494.22442938    -2541.12215007
  entropy T*S    EENTRO =         0.00000000
  eigenvalues    EBANDS =      -634.58974786
  atomic energy  EATOM  =      3769.08782378
  Solvation  Ediel_sol  =         0.00000000
  ---------------------------------------------------
  free energy    TOTEN  =       -10.42837950 eV

  energy without entropy =      -10.42837950  energy(sigma->0) =      -10.42837950


--------------------------------------------------------------------------------------------------------




--------------------------------------- Iteration      1(   3)  ---------------------------------------


     EDDAV:  cpu time    0.2198: real time    0.2203
 BZINTS: Fermi energy:  1.635808; 76.000000 electrons
         Band energy:-696.184556;  BLOECHL correction:  0.000000
       DOS:  cpu time    0.0008: real time    0.0008
    --------------------------------------------
      LOOP:  cpu time    0.2206: real time    0.2211

 eigenvalue-minimisations  :  1064
 total energy-change (2. order) :-0.6159481E+02  (-0.6111287E+02)
 number of electron      76.0000000 magnetization 
 augmentation part       76.0000000 magnetization 

 Free energy of the ion-electron system (eV)
  ---------------------------------------------------
  alpha Z        PSCENC =        68.46425725
  Ewald energy   TEWEN  =     -2728.27293650
  -Hartree energ DENC   =      -620.08040959
  -exchange      EXHF   =         0.00000000
  -V(xc)+E(xc)   XCENC  =       181.86035411
  PAW double counting   =      2494.22442938    -2541.12215007
  entropy T*S    EENTRO =         0.00000000
  eigenvalues    EBANDS =      -696.18455595
  atomic energy  EATOM  =      3769.08782378
  Solvation  Ediel_sol  =         0.00000000
  ---------------------------------------------------
  free energy    TOTEN  =       -72.02318760 eV

  energy without entropy =      -72.02318760  energy(sigma->0) =      -72.02318760


--------------------------------------------------------------------------------------------------------




--------------------------------------- Iteration      1(   4)  ---------------------------------------


     EDDAV:  cpu time    0.2719: real time    0.2719
 BZINTS: Fermi energy:  1.579506; 76.000000 electrons
         Band energy:-703.269860;  BLOECHL correction:  0.000000
       DOS:  cpu time    0.0008: real time    0.0008
    --------------------------------------------
      LOOP:  cpu time    0.2727: real time    0.2727

 eigenvalue-minimisations  :  1416
 total energy-change (2. order) :-0.7085304E+01  (-0.7063765E+01)
 number of electron      76.0000000 magnetization 
 augmentation part       76.0000000 magnetization 

 Free energy of the ion-electron system (eV)
  ---------------------------------------------------
  alpha Z        PSCENC =        68.46425725
  Ewald energy   TEWEN  =     -2728.27293650
  -Hartree energ DENC   =      -620.08040959
  -exchange      EXHF   =         0.00000000
  -V(xc)+E(xc)   XCENC  =       181.86035411
  PAW double counting   =      2494.22442938    -2541.12215007
  entropy T*S    EENTRO =         0.00000000
  eigenvalues    EBANDS =      -703.26986039
  atomic energy  EATOM  =      3769.08782378
  Solvation  Ediel_sol  =         0.00000000
  ---------------------------------------------------
  free energy    TOTEN  =       -79.10849204 eV

  energy without entropy =      -79.10849204  energy(sigma->0) =      -79.10849204


--------------------------------------------------------------------------------------------------------




--------------------------------------- Iteration      1(   5)  ---------------------------------------


     EDDAV:  cpu time    0.2245: real time    0.2245
 BZINTS: Fermi energy:  1.518178; 76.000000 electrons
         Band energy:-704.086158;  BLOECHL correction:  0.000000
       DOS:  cpu time    0.0007: real time    0.0007
    CHARGE:  cpu time    0.0187: real time    0.0189
    MIXING:  cpu time    0.0007: real time    0.0097
    --------------------------------------------
      LOOP:  cpu time    0.2445: real time    0.2538

 eigenvalue-minimisations  :  1112
 total energy-change (2. order) :-0.8162976E+00  (-0.8161580E+00)
 number of electron      76.0000002 magnetization 
 augmentation part       -1.8601693 magnetization 

 Broyden mixing:
  rms(total) = 0.21784E+01    rms(broyden)= 0.21781E+01
  rms(prec ) = 0.24690E+01
  weight for this iteration     100.00

 Free energy of the ion-electron system (eV)
  ---------------------------------------------------
  alpha Z        PSCENC =        68.46425725
  Ewald energy   TEWEN  =     -2728.27293650
  -Hartree energ DENC   =      -620.08040959
  -exchange      EXHF   =         0.00000000
  -V(xc)+E(xc)   XCENC  =       181.86035411
  PAW double counting   =      2494.22442938    -2541.12215007
  entropy T*S    EENTRO =         0.00000000
  eigenvalues    EBANDS =      -704.08615802
  atomic energy  EATOM  =      3769.08782378
  Solvation  Ediel_sol  =         0.00000000
  ---------------------------------------------------
  free energy    TOTEN  =       -79.92478966 eV

  energy without entropy =      -79.92478966  energy(sigma->0) =      -79.92478966


--------------------------------------------------------------------------------------------------------




--------------------------------------- Iteration      1(   6)  ---------------------------------------


    POTLOK:  cpu time    0.0048: real time    0.0048
    SETDIJ:  cpu time    0.0012: real time    0.0012
    EDDIAG:  cpu time    0.0527: real time    0.0553
  RMM-DIIS:  cpu time    0.1107: real time    0.1109
    ORTHCH:  cpu time    0.0069: real time    0.0069
 BZINTS: Fermi energy:  2.023161; 76.000000 electrons
         Band energy:-686.573227;  BLOECHL correction:  0.000000
       DOS:  cpu time    0.0008: real time    0.0008
    CHARGE:  cpu time    0.0173: real time    0.0173
    MIXING:  cpu time    0.0006: real time    0.0006
    --------------------------------------------
      LOOP:  cpu time    0.1949: real time    0.1978

 eigenvalue-minimisations  :   892
 total energy-change (2. order) : 0.2369686E+01  (-0.7257381E+00)
 number of electron      76.0000002 magnetization 
 augmentation part       -1.8017475 magnetization 

 Broyden mixing:
  rms(total) = 0.14730E+01    rms(broyden)= 0.14730E+01
  rms(prec ) = 0.15406E+01
  weight for this iteration     100.00

 eigenvalues of (default mixing * dielectric matrix)
  average eigenvalue GAMMA=   2.3514
  2.3514

 Free energy of the ion-electron system (eV)
  ---------------------------------------------------
  alpha Z        PSCENC =        68.46425725
  Ewald energy   TEWEN  =     -2728.27293650
  -Hartree energ DENC   =      -635.37062194
  -exchange      EXHF   =         0.00000000
  -V(xc)+E(xc)   XCENC  =       183.67624112
  PAW double counting   =      3963.95735293    -4012.52399332
  entropy T*S    EENTRO =         0.00000000
  eigenvalues    EBANDS =      -686.57322652
  atomic energy  EATOM  =      3769.08782378
  Solvation  Ediel_sol  =         0.00000000
  ---------------------------------------------------
  free energy    TOTEN  =       -77.55510321 eV

  energy without entropy =      -77.55510321  energy(sigma->0) =      -77.55510321


--------------------------------------------------------------------------------------------------------




--------------------------------------- Iteration      1(   7)  ---------------------------------------


    POTLOK:  cpu time    0.0041: real time    0.0041
    SETDIJ:  cpu time    0.0014: real time    0.0014
    EDDIAG:  cpu time    0.0517: real time    0.0517
  RMM-DIIS:  cpu time    0.1082: real time    0.1083
    ORTHCH:  cpu time    0.0069: real time    0.0069
 BZINTS: Fermi energy:  2.271226; 76.000000 electrons
         Band energy:-671.752294;  BLOECHL correction:  0.000000
       DOS:  cpu time    0.0007: real time    0.0007
    CHARGE:  cpu time    0.0173: real time    0.0173
    MIXING:  cpu time    0.0006: real time    0.0006
    --------------------------------------------
      LOOP:  cpu time    0.1909: real time    0.1910

 eigenvalue-minimisations  :   966
 total energy-change (2. order) : 0.4238770E+00  (-0.2092983E+00)
 number of electron      76.0000002 magnetization 
 augmentation part       -1.7607509 magnetization 

 Broyden mixing:
  rms(total) = 0.51353E+00    rms(broyden)= 0.51353E+00
  rms(prec ) = 0.53831E+00
  weight for this iteration     100.00

 eigenvalues of (default mixing * dielectric matrix)
  average eigenvalue GAMMA=   1.9164
  1.3904  2.4425

 Free energy of the ion-electron system (eV)
  ---------------------------------------------------
  alpha Z        PSCENC =        68.46425725
  Ewald energy   TEWEN  =     -2728.27293650
  -Hartree energ DENC   =      -650.10546583
  -exchange      EXHF   =         0.00000000
  -V(xc)+E(xc)   XCENC  =       185.33742307
  PAW double counting   =      6425.67263208    -6475.56266580
  entropy T*S    EENTRO =         0.00000000
  eigenvalues    EBANDS =      -671.75229427
  atomic energy  EATOM  =      3769.08782378
  Solvation  Ediel_sol  =         0.00000000
  ---------------------------------------------------
  free energy    TOTEN  =       -77.13122623 eV

  energy without entropy =      -77.13122623  energy(sigma->0) =      -77.13122623


--------------------------------------------------------------------------------------------------------




--------------------------------------- Iteration      1(   8)  ---------------------------------------


    POTLOK:  cpu time    0.0042: real time    0.0043
    SETDIJ:  cpu time    0.0014: real time    0.0014
    EDDIAG:  cpu time    0.0532: real time    0.0532
  RMM-DIIS:  cpu time    0.1148: real time    0.1148
    ORTHCH:  cpu time    0.0069: real time    0.0069
 BZINTS: Fermi energy:  2.296534; 76.000000 electrons
         Band energy:-669.298632;  BLOECHL correction:  0.000000
       DOS:  cpu time    0.0007: real time    0.0007
    CHARGE:  cpu time    0.0171: real time    0.0171
    MIXING:  cpu time    0.0006: real time    0.0006
    --------------------------------------------
      LOOP:  cpu time    0.1989: real time    0.1989

 eigenvalue-minimisations  :  1015
 total energy-change (2. order) : 0.6578116E-01  (-0.2437397E-01)
 number of electron      76.0000002 magnetization 
 augmentation part       -1.7751925 magnetization 

 Broyden mixing:
  rms(total) = 0.48116E-01    rms(broyden)= 0.48093E-01
  rms(prec ) = 0.63432E-01
  weight for this iteration     100.00

 eigenvalues of (default mixing * dielectric matrix)
  average eigenvalue GAMMA=   1.6446
  1.0791  2.3223  1.5325

 Free energy of the ion-electron system (eV)
  ---------------------------------------------------
  alpha Z        PSCENC =        68.46425725
  Ewald energy   TEWEN  =     -2728.27293650
  -Hartree energ DENC   =      -652.63198734
  -exchange      EXHF   =         0.00000000
  -V(xc)+E(xc)   XCENC  =       185.64501806
  PAW double counting   =      7525.14188228    -7575.20087011
  entropy T*S    EENTRO =         0.00000000
  eigenvalues    EBANDS =      -669.29863248
  atomic energy  EATOM  =      3769.08782378
  Solvation  Ediel_sol  =         0.00000000
  ---------------------------------------------------
  free energy    TOTEN  =       -77.06544507 eV

  energy without entropy =      -77.06544507  energy(sigma->0) =      -77.06544507


--------------------------------------------------------------------------------------------------------




--------------------------------------- Iteration      1(   9)  ---------------------------------------


    POTLOK:  cpu time    0.0042: real time    0.0042
    SETDIJ:  cpu time    0.0014: real time    0.0014
    EDDIAG:  cpu time    0.0510: real time    0.0510
  RMM-DIIS:  cpu time    0.1312: real time    0.1312
    ORTHCH:  cpu time    0.0073: real time    0.0073
 BZINTS: Fermi energy:  2.289497; 76.000000 electrons
         Band energy:-670.192587;  BLOECHL correction:  0.000000
       DOS:  cpu time    0.0007: real time    0.0007
    CHARGE:  cpu time    0.0180: real time    0.0180
    MIXING:  cpu time    0.0011: real time    0.0011
    --------------------------------------------
      LOOP:  cpu time    0.2149: real time    0.2149

 eigenvalue-minimisations  :  1162
 total energy-change (2. order) : 0.5343987E-02  (-0.2803829E-02)
 number of electron      76.0000002 magnetization 
 augmentation part       -1.7897473 magnetization 

 Broyden mixing:
  rms(total) = 0.27438E-01    rms(broyden)= 0.27422E-01
  rms(prec ) = 0.29620E-01
  weight for this iteration     100.00

 eigenvalues of (default mixing * dielectric matrix)
  average eigenvalue GAMMA=   1.8031
  2.3168  2.3168  1.2894  1.2894

 Free energy of the ion-electron system (eV)
  ---------------------------------------------------
  alpha Z        PSCENC =        68.46425725
  Ewald energy   TEWEN  =     -2728.27293650
  -Hartree energ DENC   =      -651.75206347
  -exchange      EXHF   =         0.00000000
  -V(xc)+E(xc)   XCENC  =       185.59246283
  PAW double counting   =      7423.26297681    -7473.25003494
  entropy T*S    EENTRO =         0.00000000
  eigenvalues    EBANDS =      -670.19258684
  atomic energy  EATOM  =      3769.08782378
  Solvation  Ediel_sol  =         0.00000000
  ---------------------------------------------------
  free energy    TOTEN  =       -77.06010108 eV

  energy without entropy =      -77.06010108  energy(sigma->0) =      -77.06010108


--------------------------------------------------------------------------------------------------------




--------------------------------------- Iteration      1(  10)  ---------------------------------------


    POTLOK:  cpu time    0.0044: real time    0.0044
    SETDIJ:  cpu time    0.0013: real time    0.0013
    EDDIAG:  cpu time    0.0559: real time    0.0559
  RMM-DIIS:  cpu time    0.1438: real time    0.1438
    ORTHCH:  cpu time    0.0070: real time    0.0070
 BZINTS: Fermi energy:  2.288490; 76.000000 electrons
         Band energy:-670.178963;  BLOECHL correction:  0.000000
       DOS:  cpu time    0.0007: real time    0.0007
    CHARGE:  cpu time    0.0172: real time    0.0172
    MIXING:  cpu time    0.0006: real time    0.0006
    --------------------------------------------
      LOOP:  cpu time    0.2309: real time    0.2309

 eigenvalue-minimisations  :  1255
 total energy-change (2. order) :-0.4892548E-03  (-0.7672588E-03)
 number of electron      76.0000002 magnetization 
 augmentation part       -1.7954041 magnetization 

 Broyden mixing:
  rms(total) = 0.11596E-01    rms(broyden)= 0.11576E-01
  rms(prec ) = 0.13468E-01
  weight for this iteration     100.00

 eigenvalues of (default mixing * dielectric matrix)
  average eigenvalue GAMMA=   1.8123
  2.4637  2.4637  1.9094  0.9628  1.2617

 Free energy of the ion-electron system (eV)
  ---------------------------------------------------
  alpha Z        PSCENC =        68.46425725
  Ewald energy   TEWEN  =     -2728.27293650
  -Hartree energ DENC   =      -651.78924950
  -exchange      EXHF   =         0.00000000
  -V(xc)+E(xc)   XCENC  =       185.59036933
  PAW double counting   =      7382.12527358    -7432.08716559
  entropy T*S    EENTRO =         0.00000000
  eigenvalues    EBANDS =      -670.17896267
  atomic energy  EATOM  =      3769.08782378
  Solvation  Ediel_sol  =         0.00000000
  ---------------------------------------------------
  free energy    TOTEN  =       -77.06059033 eV

  energy without entropy =      -77.06059033  energy(sigma->0) =      -77.06059033


--------------------------------------------------------------------------------------------------------




--------------------------------------- Iteration      1(  11)  ---------------------------------------


    POTLOK:  cpu time    0.0042: real time    0.0042
    SETDIJ:  cpu time    0.0014: real time    0.0014
    EDDIAG:  cpu time    0.0523: real time    0.0523
  RMM-DIIS:  cpu time    0.1336: real time    0.1336
    ORTHCH:  cpu time    0.0069: real time    0.0069
 BZINTS: Fermi energy:  2.288038; 76.000000 electrons
         Band energy:-669.864862;  BLOECHL correction:  0.000000
       DOS:  cpu time    0.0007: real time    0.0007
    CHARGE:  cpu time    0.0172: real time    0.0172
    MIXING:  cpu time    0.0006: real time    0.0006
    --------------------------------------------
      LOOP:  cpu time    0.2169: real time    0.2169

 eigenvalue-minimisations  :  1219
 total energy-change (2. order) :-0.2752056E-03  (-0.3345393E-03)
 number of electron      76.0000002 magnetization 
 augmentation part       -1.7970160 magnetization 

 Broyden mixing:
  rms(total) = 0.23941E-02    rms(broyden)= 0.23530E-02
  rms(prec ) = 0.34389E-02
  weight for this iteration     100.00

 eigenvalues of (default mixing * dielectric matrix)
  average eigenvalue GAMMA=   1.7272
  2.5930  2.5930  1.4835  1.4835  1.1049  1.1049

 Free energy of the ion-electron system (eV)
  ---------------------------------------------------
  alpha Z        PSCENC =        68.46425725
  Ewald energy   TEWEN  =     -2728.27293650
  -Hartree energ DENC   =      -652.14223515
  -exchange      EXHF   =         0.00000000
  -V(xc)+E(xc)   XCENC  =       185.62305762
  PAW double counting   =      7369.96050801    -7419.91647858
  entropy T*S    EENTRO =         0.00000000
  eigenvalues    EBANDS =      -669.86486196
  atomic energy  EATOM  =      3769.08782378
  Solvation  Ediel_sol  =         0.00000000
  ---------------------------------------------------
  free energy    TOTEN  =       -77.06086554 eV

  energy without entropy =      -77.06086554  energy(sigma->0) =      -77.06086554


--------------------------------------------------------------------------------------------------------




--------------------------------------- Iteration      1(  12)  ---------------------------------------


    POTLOK:  cpu time    0.0039: real time    0.0043
    SETDIJ:  cpu time    0.0013: real time    0.0013
    EDDIAG:  cpu time    0.0518: real time    0.0518
  RMM-DIIS:  cpu time    0.1335: real time    0.1336
    ORTHCH:  cpu time    0.0069: real time    0.0069
 BZINTS: Fermi energy:  2.284592; 76.000000 electrons
         Band energy:-669.905702;  BLOECHL correction:  0.000000
       DOS:  cpu time    0.0007: real time    0.0007
    CHARGE:  cpu time    0.0174: real time    0.0174
    MIXING:  cpu time    0.0007: real time    0.0007
    --------------------------------------------
      LOOP:  cpu time    0.2162: real time    0.2167

 eigenvalue-minimisations  :  1149
 total energy-change (2. order) :-0.1265316E-03  (-0.1547823E-03)
 number of electron      76.0000002 magnetization 
 augmentation part       -1.7991824 magnetization 

 Broyden mixing:
  rms(total) = 0.15426E-02    rms(broyden)= 0.15108E-02
  rms(prec ) = 0.19781E-02
  weight for this iteration     100.00

 eigenvalues of (default mixing * dielectric matrix)
  average eigenvalue GAMMA=   1.7569
  2.6815  2.6815  2.0086  2.0086  1.2084  1.0305  0.6793

 Free energy of the ion-electron system (eV)
  ---------------------------------------------------
  alpha Z        PSCENC =        68.46425725
  Ewald energy   TEWEN  =     -2728.27293650
  -Hartree energ DENC   =      -652.11290822
  -exchange      EXHF   =         0.00000000
  -V(xc)+E(xc)   XCENC  =       185.62248969
  PAW double counting   =      7367.73409706    -7417.67811297
  entropy T*S    EENTRO =         0.00000000
  eigenvalues    EBANDS =      -669.90570216
  atomic energy  EATOM  =      3769.08782378
  Solvation  Ediel_sol  =         0.00000000
  ---------------------------------------------------
  free energy    TOTEN  =       -77.06099207 eV

  energy without entropy =      -77.06099207  energy(sigma->0) =      -77.06099207


--------------------------------------------------------------------------------------------------------




--------------------------------------- Iteration      1(  13)  ---------------------------------------


    POTLOK:  cpu time    0.0038: real time    0.0042
    SETDIJ:  cpu time    0.0014: real time    0.0014
    EDDIAG:  cpu time    0.0514: real time    0.0514
  RMM-DIIS:  cpu time    0.0905: real time    0.0905
    ORTHCH:  cpu time    0.0069: real time    0.0069
 BZINTS: Fermi energy:  2.282058; 76.000000 electrons
         Band energy:-669.881799;  BLOECHL correction:  0.000000
       DOS:  cpu time    0.0007: real time    0.0007
    CHARGE:  cpu time    0.0171: real time    0.0171
    MIXING:  cpu time    0.0007: real time    0.0007
    --------------------------------------------
      LOOP:  cpu time    0.1724: real time    0.1729

 eigenvalue-minimisations  :   813
 total energy-change (2. order) :-0.5757083E-04  (-0.6626998E-04)
 number of electron      76.0000002 magnetization 
 augmentation part       -1.8000462 magnetization 

 Broyden mixing:
  rms(total) = 0.10819E-02    rms(broyden)= 0.10632E-02
  rms(prec ) = 0.13508E-02
  weight for this iteration     100.00

 eigenvalues of (default mixing * dielectric matrix)
  average eigenvalue GAMMA=   1.8230
  3.6802  2.5401  2.1364  2.1364  1.2278  1.0447  0.9091  0.9091

 Free energy of the ion-electron system (eV)
  ---------------------------------------------------
  alpha Z        PSCENC =        68.46425725
  Ewald energy   TEWEN  =     -2728.27293650
  -Hartree energ DENC   =      -652.14970256
  -exchange      EXHF   =         0.00000000
  -V(xc)+E(xc)   XCENC  =       185.62633141
  PAW double counting   =      7369.99533380    -7419.93035813
  entropy T*S    EENTRO =         0.00000000
  eigenvalues    EBANDS =      -669.88179869
  atomic energy  EATOM  =      3769.08782378
  Solvation  Ediel_sol  =         0.00000000
  ---------------------------------------------------
  free energy    TOTEN  =       -77.06104964 eV

  energy without entropy =      -77.06104964  energy(sigma->0) =      -77.06104964


--------------------------------------------------------------------------------------------------------




--------------------------------------- Iteration      1(  14)  ---------------------------------------


    POTLOK:  cpu time    0.0039: real time    0.0043
    SETDIJ:  cpu time    0.0012: real time    0.0012
    EDDIAG:  cpu time    0.0507: real time    0.0507
  RMM-DIIS:  cpu time    0.0954: real time    0.0954
    ORTHCH:  cpu time    0.0069: real time    0.0069
 BZINTS: Fermi energy:  2.279883; 76.000000 electrons
         Band energy:-669.881336;  BLOECHL correction:  0.000000
       DOS:  cpu time    0.0006: real time    0.0006
    CHARGE:  cpu time    0.0171: real time    0.0171
    MIXING:  cpu time    0.0007: real time    0.0007
    --------------------------------------------
      LOOP:  cpu time    0.1765: real time    0.1769

 eigenvalue-minimisations  :   891
 total energy-change (2. order) :-0.2000443E-04  (-0.2517020E-04)
 number of electron      76.0000002 magnetization 
 augmentation part       -1.8005170 magnetization 

 Broyden mixing:
  rms(total) = 0.70874E-03    rms(broyden)= 0.70174E-03
  rms(prec ) = 0.94523E-03
  weight for this iteration     100.00

 eigenvalues of (default mixing * dielectric matrix)
  average eigenvalue GAMMA=   1.7575
  3.3810  2.2118  2.2118  2.2353  1.8109  1.1378  1.1378  0.9422  0.7490

 Free energy of the ion-electron system (eV)
  ---------------------------------------------------
  alpha Z        PSCENC =        68.46425725
  Ewald energy   TEWEN  =     -2728.27293650
  -Hartree energ DENC   =      -652.16320796
  -exchange      EXHF   =         0.00000000
  -V(xc)+E(xc)   XCENC  =       185.62816128
  PAW double counting   =      7369.86072837    -7419.78456001
  entropy T*S    EENTRO =         0.00000000
  eigenvalues    EBANDS =      -669.88133584
  atomic energy  EATOM  =      3769.08782378
  Solvation  Ediel_sol  =         0.00000000
  ---------------------------------------------------
  free energy    TOTEN  =       -77.06106964 eV

  energy without entropy =      -77.06106964  energy(sigma->0) =      -77.06106964


--------------------------------------------------------------------------------------------------------




--------------------------------------- Iteration      1(  15)  ---------------------------------------


    POTLOK:  cpu time    0.0038: real time    0.0042
    SETDIJ:  cpu time    0.0013: real time    0.0014
    EDDIAG:  cpu time    0.0512: real time    0.0512
  RMM-DIIS:  cpu time    0.0912: real time    0.0912
    ORTHCH:  cpu time    0.0069: real time    0.0069
 BZINTS: Fermi energy:  2.277811; 76.000000 electrons
         Band energy:-669.864449;  BLOECHL correction:  0.000000
       DOS:  cpu time    0.0006: real time    0.0006
    --------------------------------------------
      LOOP:  cpu time    0.1550: real time    0.1554

 eigenvalue-minimisations  :   791
 total energy-change (2. order) :-0.8223213E-05  (-0.1295023E-04)
 number of electron      76.0000002 magnetization 
 augmentation part       -1.8005170 magnetization 

 Free energy of the ion-electron system (eV)
  ---------------------------------------------------
  alpha Z        PSCENC =        68.46425725
  Ewald energy   TEWEN  =     -2728.27293650
  -Hartree energ DENC   =      -652.18216737
  -exchange      EXHF   =         0.00000000
  -V(xc)+E(xc)   XCENC  =       185.62968874
  PAW double counting   =      7370.53115319    -7420.45444755
  entropy T*S    EENTRO =         0.00000000
  eigenvalues    EBANDS =      -669.86444940
  atomic energy  EATOM  =      3769.08782378
  Solvation  Ediel_sol  =         0.00000000
  ---------------------------------------------------
  free energy    TOTEN  =       -77.06107787 eV

  energy without entropy =      -77.06107787  energy(sigma->0) =      -77.06107787


--------------------------------------------------------------------------------------------------------




 average (electrostatic) potential at core
  the test charge radii are     0.9587  0.9698  0.7079
  (the norm of the test charge is              1.0000)
       1 -88.3741       2 -88.3741       3 -88.2922       4 -88.2922       5 -88.2922
       6 -88.2922       7 -88.2836       8 -88.2836       9 -88.2672      10 -88.2672
      11 -64.1423      12 -64.1423      13 -63.4360      14 -63.4360      15 -63.4360
      16 -63.4360
 
 
 
 E-fermi :   2.2778     XC(G=0):  -9.1041     alpha+bet :-10.4786


 k-point     1 :       0.0000    0.0000    0.0000
  band No.  band energies     occupation 
      1     -41.2897      2.00000
      2     -41.2897      2.00000
      3     -40.6285      2.00000
      4     -40.6278      2.00000
      5     -40.6273      2.00000
      6     -40.6266      2.00000
      7     -12.6340      2.00000
      8     -12.4616      2.00000
      9      -9.5569      2.00000
     10      -9.5195      2.00000
     11      -9.4548      2.00000
     12      -9.4367      2.00000
     13      -9.3474      2.00000
     14      -9.2635      2.00000
     15      -5.6698      2.00000
     16      -5.0354      2.00000
     17      -2.6660      2.00000
     18      -2.6276      2.00000
     19      -2.5963      2.00000
     20      -2.2117      2.00000
     21      -2.1446      2.00000
     22      -2.1170      2.00000
     23       0.0388      2.00000
     24       0.1517      2.00000
     25       0.1669      2.00000
     26       0.2010      2.00000
     27       0.3731      2.00000
     28       0.4583      2.00000
     29       0.6075      2.00000
     30       0.9845      2.00000
     31       1.4198      2.00000
     32       1.4614      2.00000
     33       1.7390      2.00000
     34       1.8703      2.00000
     35       1.8942      2.00000
     36       1.9002      2.00000
     37       1.9250      2.00000
     38       2.1179      2.00000
     39       5.7707      0.00000
     40       5.8666      0.00000
     41       6.0328      0.00000
     42       6.1679      0.00000
     43       6.4194      0.00000
     44       7.1506      0.00000
     45       7.2932      0.00000
     46       7.3361      0.00000
     47       7.9454      0.00000
     48       8.0336      0.00000

 k-point     2 :       0.3333    0.0000    0.0000
  band No.  band energies     occupation 
      1     -41.2897      2.00000
      2     -41.2897      2.00000
      3     -40.6282      2.00000
      4     -40.6277      2.00000
      5     -40.6273      2.00000
      6     -40.6268      2.00000
      7     -12.5915      2.00000
      8     -12.5052      2.00000
      9      -9.5533      2.00000
     10      -9.4941      2.00000
     11      -9.4554      2.00000
     12      -9.4370      2.00000
     13      -9.3732      2.00000
     14      -9.2887      2.00000
     15      -5.4715      2.00000
     16      -5.1550      2.00000
     17      -2.6873      2.00000
     18      -2.6863      2.00000
     19      -2.5380      2.00000
     20      -2.3006      2.00000
     21      -2.1406      2.00000
     22      -2.0912      2.00000
     23      -0.1112      2.00000
     24      -0.0720      2.00000
     25       0.2774      2.00000
     26       0.4547      2.00000
     27       0.4993      2.00000
     28       0.7288      2.00000
     29       0.8919      2.00000
     30       1.0420      2.00000
     31       1.2043      2.00000
     32       1.4924      2.00000
     33       1.5577      2.00000
     34       1.6224      2.00000
     35       1.6693      2.00000
     36       1.8153      2.00000
     37       1.8417      2.00000
     38       1.8946      2.00000
     39       5.9879      0.00000
     40       6.0938      0.00000
     41       6.2557      0.00000
     42       6.4545      0.00000
     43       6.6897      0.00000
     44       6.7344      0.00000
     45       7.1440      0.00000
     46       7.2163      0.00000
     47       8.1136      0.00000
     48       8.6635      0.00000

 k-point     3 :       0.0000    0.3333    0.0000
  band No.  band energies     occupation 
      1     -41.2898      2.00000
      2     -41.2897      2.00000
      3     -40.6285      2.00000
      4     -40.6278      2.00000
      5     -40.6273      2.00000
      6     -40.6265      2.00000
      7     -12.5825      2.00000
      8     -12.4887      2.00000
      9      -9.6406      2.00000
     10      -9.5327      2.00000
     11      -9.4286      2.00000
     12      -9.4131      2.00000
     13      -9.3729      2.00000
     14      -9.3079      2.00000
     15      -5.4668      2.00000
     16      -5.1329      2.00000
     17      -2.7270      2.00000
     18      -2.4813      2.00000
     19      -2.3497      2.00000
     20      -2.2902      2.00000
     21      -2.1365      2.00000
     22      -2.0664      2.00000
     23      -0.0953      2.00000
     24       0.0305      2.00000
     25       0.0623      2.00000
     26       0.1866      2.00000
     27       0.3572      2.00000
     28       0.7334      2.00000
     29       0.9257      2.00000
     30       1.0735      2.00000
     31       1.1761      2.00000
     32       1.4310      2.00000
     33       1.5556      2.00000
     34       1.5919      2.00000
     35       1.6643      2.00000
     36       1.8149      2.00000
     37       2.0463      2.00000
     38       2.2346      2.00000
     39       5.0827      0.00000
     40       5.9990      0.00000
     41       6.1963      0.00000
     42       6.5453      0.00000
     43       6.6137      0.00000
     44       6.9902      0.00000
     45       7.1948      0.00000
     46       7.1961      0.00000
     47       8.0478      0.00000
     48       8.5502      0.00000

 k-point     4 :       0.3333    0.3333    0.0000
  band No.  band energies     occupation 
      1     -41.2897      2.00000
      2     -41.2897      2.00000
      3     -40.6282      2.00000
      4     -40.6277      2.00000
      5     -40.6273      2.00000
      6     -40.6268      2.00000
      7     -12.5573      2.00000
      8     -12.5103      2.00000
      9      -9.6567      2.00000
     10      -9.6050      2.00000
     11      -9.4130      2.00000
     12      -9.3800      2.00000
     13      -9.3485      2.00000
     14      -9.3140      2.00000
     15      -5.3365      2.00000
     16      -5.1689      2.00000
     17      -2.6719      2.00000
     18      -2.5242      2.00000
     19      -2.4056      2.00000
     20      -2.3065      2.00000
     21      -2.1210      2.00000
     22      -2.0776      2.00000
     23      -0.1678      2.00000
     24      -0.1218      2.00000
     25       0.0398      2.00000
     26       0.3491      2.00000
     27       0.5582      2.00000
     28       0.7800      2.00000
     29       0.9499      2.00000
     30       1.0008      2.00000
     31       1.1324      2.00000
     32       1.2873      2.00000
     33       1.3474      2.00000
     34       1.5262      2.00000
     35       1.7556      2.00000
     36       1.8444      2.00000
     37       1.9952      2.00000
     38       2.0980      2.00000
     39       5.5262      0.00000
     40       5.9907      0.00000
     41       6.4263      0.00000
     42       6.6249      0.00000
     43       6.8278      0.00000
     44       6.8599      0.00000
     45       7.0887      0.00000
     46       7.2142      0.00000
     47       8.3302      0.00000
     48       8.5068      0.00000

 k-point     5 :       0.0000    0.0000    0.3333
  band No.  band energies     occupation 
      1     -41.2898      2.00000
      2     -41.2897      2.00000
      3     -40.6283      2.00000
      4     -40.6279      2.00000
      5     -40.6271      2.00000
      6     -40.6268      2.00000
      7     -12.5633      2.00000
      8     -12.4739      2.00000
      9      -9.5711      2.00000
     10      -9.5066      2.00000
     11      -9.4893      2.00000
     12      -9.4606      2.00000
     13      -9.4029      2.00000
     14      -9.4019      2.00000
     15      -5.4649      2.00000
     16      -5.1176      2.00000
     17      -2.5283      2.00000
     18      -2.3855      2.00000
     19      -2.2279      2.00000
     20      -2.1782      2.00000
     21      -2.1181      2.00000
     22      -2.0295      2.00000
     23      -0.2150      2.00000
     24      -0.0993      2.00000
     25      -0.0953      2.00000
     26      -0.0683      2.00000
     27       0.3909      2.00000
     28       0.7799      2.00000
     29       0.8228      2.00000
     30       1.0714      2.00000
     31       1.1393      2.00000
     32       1.5078      2.00000
     33       1.6191      2.00000
     34       1.8145      2.00000
     35       1.8587      2.00000
     36       1.8942      2.00000
     37       1.9750      2.00000
     38       2.1000      2.00000
     39       5.1740      0.00000
     40       5.5839      0.00000
     41       6.0599      0.00000
     42       6.5219      0.00000
     43       6.8382      0.00000
     44       6.8602      0.00000
     45       7.0552      0.00000
     46       7.3003      0.00000
     47       8.2233      0.00000
     48       8.4212      0.00000

 k-point     6 :       0.3333    0.0000    0.3333
  band No.  band energies     occupation 
      1     -41.2897      2.00000
      2     -41.2897      2.00000
      3     -40.6280      2.00000
      4     -40.6277      2.00000
      5     -40.6273      2.00000
      6     -40.6270      2.00000
      7     -12.5390      2.00000
      8     -12.4942      2.00000
      9      -9.6242      2.00000
     10      -9.5739      2.00000
     11      -9.4746      2.00000
     12      -9.4423      2.00000
     13      -9.3880      2.00000
     14      -9.3492      2.00000
     15      -5.3370      2.00000
     16      -5.1627      2.00000
     17      -2.5351      2.00000
     18      -2.4670      2.00000
     19      -2.2083      2.00000
     20      -2.1876      2.00000
     21      -2.0791      2.00000
     22      -2.0224      2.00000
     23      -0.2366      2.00000
     24      -0.1688      2.00000
     25       0.1078      2.00000
     26       0.1978      2.00000
     27       0.2576      2.00000
     28       0.5698      2.00000
     29       0.8950      2.00000
     30       0.9440      2.00000
     31       1.1541      2.00000
     32       1.2987      2.00000
     33       1.5764      2.00000
     34       1.6903      2.00000
     35       1.7655      2.00000
     36       1.9166      2.00000
     37       1.9547      2.00000
     38       2.0258      2.00000
     39       5.5204      0.00000
     40       5.8247      0.00000
     41       6.5535      0.00000
     42       6.5737      0.00000
     43       6.8264      0.00000
     44       6.8608      0.00000
     45       7.1875      0.00000
     46       7.3255      0.00000
     47       8.1622      0.00000
     48       8.5281      0.00000

 k-point     7 :       0.0000    0.3333    0.3333
  band No.  band energies     occupation 
      1     -41.2897      2.00000
      2     -41.2897      2.00000
      3     -40.6283      2.00000
      4     -40.6280      2.00000
      5     -40.6271      2.00000
      6     -40.6267      2.00000
      7     -12.5288      2.00000
      8     -12.4801      2.00000
      9      -9.6439      2.00000
     10      -9.5622      2.00000
     11      -9.4937      2.00000
     12      -9.4305      2.00000
     13      -9.4138      2.00000
     14      -9.4030      2.00000
     15      -5.3306      2.00000
     16      -5.1495      2.00000
     17      -2.3540      2.00000
     18      -2.2750      2.00000
     19      -2.2186      2.00000
     20      -2.1734      2.00000
     21      -2.1492      2.00000
     22      -2.0498      2.00000
     23      -0.1391      2.00000
     24      -0.0268      2.00000
     25       0.0234      2.00000
     26       0.0908      2.00000
     27       0.3357      2.00000
     28       0.6054      2.00000
     29       0.8676      2.00000
     30       0.9330      2.00000
     31       1.1465      2.00000
     32       1.2466      2.00000
     33       1.5827      2.00000
     34       1.6395      2.00000
     35       1.7140      2.00000
     36       1.9837      2.00000
     37       2.0021      2.00000
     38       2.0191      2.00000
     39       5.0357      0.00000
     40       5.3380      0.00000
     41       6.3668      0.00000
     42       6.5200      0.00000
     43       6.6688      0.00000
     44       6.8050      0.00000
     45       6.8389      0.00000
     46       7.0222      0.00000
     47       8.1955      0.00000
     48       8.5722      0.00000

 k-point     8 :       0.3333    0.3333    0.3333
  band No.  band energies     occupation 
      1     -41.2897      2.00000
      2     -41.2897      2.00000
      3     -40.6280      2.00000
      4     -40.6277      2.00000
      5     -40.6273      2.00000
      6     -40.6270      2.00000
      7     -12.5144      2.00000
      8     -12.4900      2.00000
      9      -9.6262      2.00000
     10      -9.5849      2.00000
     11      -9.5197      2.00000
     12      -9.4594      2.00000
     13      -9.4007      2.00000
     14      -9.3874      2.00000
     15      -5.2203      2.00000
     16      -5.1288      2.00000
     17      -2.4223      2.00000
     18      -2.3756      2.00000
     19      -2.1779      2.00000
     20      -2.1682      2.00000
     21      -2.0430      2.00000
     22      -1.9957      2.00000
     23      -0.2878      2.00000
     24      -0.1985      2.00000
     25      -0.1100      2.00000
     26       0.1110      2.00000
     27       0.4935      2.00000
     28       0.6058      2.00000
     29       0.8575      2.00000
     30       0.9609      2.00000
     31       1.0324      2.00000
     32       1.2011      2.00000
     33       1.4795      2.00000
     34       1.5778      2.00000
     35       1.7331      2.00000
     36       1.8313      2.00000
     37       2.0511      2.00000
     38       2.1841      2.00000
     39       5.3109      0.00000
     40       5.5762      0.00000
     41       6.5055      0.00000
     42       6.5640      0.00000
     43       6.7439      0.00000
     44       6.9333      0.00000
     45       7.1246      0.00000
     46       7.2187      0.00000
     47       8.2765      0.00000
     48       8.4107      0.00000


--------------------------------------------------------------------------------------------------------


 soft charge-density along one line, spin component           1
         0         1         2         3         4         5         6         7         8         9
 total charge-density along one line
 
 pseudopotential strength for first ion, spin component:           1
 30.064  37.510   0.001   0.000  -0.000   0.001   0.000  -0.000
 37.510  46.805   0.001   0.000  -0.000   0.001   0.001  -0.000
  0.001   0.001   6.587  -0.000   0.000  10.200  -0.000   0.000
  0.000   0.000  -0.000   6.586   0.000  -0.000  10.199   0.000
 -0.000  -0.000   0.000   0.000   6.586   0.000   0.000  10.199
  0.001   0.001  10.200  -0.000   0.000  15.813  -0.001   0.000
  0.000   0.001  -0.000  10.199   0.000  -0.001  15.812   0.000
 -0.000  -0.000   0.000   0.000  10.199   0.000   0.000  15.811
 total augmentation occupancy for first ion, spin component:           1
 10.868  -6.197  -0.011  -0.011   0.000   0.013   0.007   0.000
 -6.197   3.980   0.005   0.007   0.000  -0.010  -0.005   0.000
 -0.011   0.005   4.363  -0.054   0.000  -1.456   0.027   0.000
 -0.011   0.007  -0.054   4.330   0.000   0.027  -1.438   0.000
  0.000   0.000   0.000   0.000   4.355   0.000   0.000  -1.448
  0.013  -0.010  -1.456   0.027   0.000   0.523  -0.012   0.000
  0.007  -0.005   0.027  -1.438   0.000  -0.012   0.516   0.000
  0.000   0.000   0.000   0.000  -1.448   0.000   0.000   0.521


------------------------ aborting loop because EDIFF is reached ----------------------------------------


    CHARGE:  cpu time    0.0183: real time    0.0183
    FORLOC:  cpu time    0.0008: real time    0.0008
    FORNL :  cpu time    0.0365: real time    0.0366
    STRESS:  cpu time    0.1061: real time    0.1152
    FORCOR:  cpu time    0.0033: real time    0.0033
    FORHAR:  cpu time    0.0025: real time    0.0025
    MIXING:  cpu time    0.0006: real time    0.0006
    OFIELD:  cpu time    0.0001: real time    0.0001

  FORCE on cell =-STRESS in cart. coord.  units (eV):
  Direction    XX          YY          ZZ          XY          YZ          ZX
  --------------------------------------------------------------------------------------
  Alpha Z    68.46426    68.46426    68.46426
  Ewald    -889.20651  -973.01138  -866.06088    -0.00000    -0.00000     0.00000
  Hartree   220.82649   188.13054   243.24364    -0.00000    -0.00000    -0.00000
  E(xc)    -277.42174  -277.33389  -277.38069    -0.00000     0.00000    -0.00000
  Local    -679.19959  -564.85494  -724.88008     0.00000     0.00000     0.00000
  n-local   602.51233   600.97242   601.63576    -0.16418    -0.01444    -0.07175
  augment   -45.32677   -44.98233   -45.13169    -0.00000     0.00000     0.00000
  Kinetic  1002.31224  1000.20612  1001.81768     0.22401    -0.25929     0.17020
  Fock        0.00000     0.00000     0.00000     0.00000     0.00000     0.00000
  -------------------------------------------------------------------------------------
  Total       2.96072    -2.40921     1.70799     0.00000     0.00000     0.00000
  in kB      16.45808   -13.39233     9.49441     0.00000     0.00000     0.00000
  external pressure =        4.19 kB  Pullay stress =        0.00 kB


 VOLUME and BASIS-vectors are now :
 -----------------------------------------------------------------------------
  energy-cutoff  :      420.00
  volume of cell :      288.22
      direct lattice vectors                 reciprocal lattice vectors
     7.481220335  0.000000000  0.000000000     0.133668032  0.000000000  0.000000000
     0.000000000  6.408385997  0.000000000     0.000000000  0.156045532  0.000000000
     0.000000000  0.000000000  6.011836859     0.000000000  0.000000000  0.166338512

  length of vectors
     7.481220335  6.408385997  6.011836859     0.133668032  0.156045532  0.166338512


 FORCES acting on ions
    electron-ion (+dipol)            ewald-force                    non-local-force                 convergence-correction
 -----------------------------------------------------------------------------------------------
   0.133E-09 -.617E+00 -.164E+00   0.191E-08 0.404E+00 0.699E-01   0.000E+00 0.221E+00 0.888E-01   -.297E-10 -.934E-03 0.480E-03
   -.222E-08 0.617E+00 -.164E+00   -.589E-09 -.404E+00 0.699E-01   0.000E+00 -.221E+00 0.888E-01   0.310E-10 0.934E-03 0.480E-03
   -.569E+02 0.285E+02 0.132E+02   0.587E+02 -.300E+02 -.142E+02   -.188E+01 0.132E+01 0.158E+01   0.220E-02 -.276E-02 -.141E-02
   0.569E+02 -.285E+02 0.132E+02   -.587E+02 0.300E+02 -.142E+02   0.188E+01 -.132E+01 0.158E+01   -.220E-02 0.276E-02 -.141E-02
   -.569E+02 -.285E+02 0.132E+02   0.587E+02 0.300E+02 -.142E+02   -.188E+01 -.132E+01 0.158E+01   0.220E-02 0.276E-02 -.141E-02
   0.569E+02 0.285E+02 0.132E+02   -.587E+02 -.300E+02 -.142E+02   0.188E+01 0.132E+01 0.158E+01   -.220E-02 -.276E-02 -.141E-02
   -.893E-10 -.583E+02 0.274E+02   0.155E-08 0.609E+02 -.281E+02   0.000E+00 -.287E+01 0.156E+00   -.379E-10 0.395E-02 0.729E-03
   -.611E-08 0.583E+02 0.274E+02   -.874E-09 -.609E+02 -.281E+02   0.000E+00 0.287E+01 0.156E+00   0.376E-10 -.395E-02 0.729E-03
   -.128E-09 0.723E+01 -.550E+02   0.162E-08 -.803E+01 0.577E+02   0.000E+00 0.123E+01 -.283E+01   -.373E-10 -.200E-02 0.243E-02
   -.608E-08 -.723E+01 -.550E+02   -.785E-09 0.803E+01 0.577E+02   0.000E+00 -.123E+01 -.283E+01   0.378E-10 0.200E-02 0.243E-02
   0.895E-10 -.616E+01 -.462E+01   0.988E-09 0.592E+01 0.467E+01   0.000E+00 0.555E-01 0.121E-01   -.191E-10 0.441E-03 -.516E-03
   -.423E-08 0.616E+01 -.462E+01   -.482E-09 -.592E+01 0.467E+01   0.000E+00 -.555E-01 0.121E-01   0.185E-10 -.441E-03 -.516E-03
   -.450E+01 0.553E+01 0.299E+01   0.410E+01 -.520E+01 -.300E+01   0.396E+00 -.601E+00 -.282E+00   -.965E-04 -.581E-03 0.453E-04
   0.450E+01 -.553E+01 0.299E+01   -.410E+01 0.520E+01 -.300E+01   -.396E+00 0.601E+00 -.282E+00   0.965E-04 0.581E-03 0.453E-04
   -.450E+01 -.553E+01 0.299E+01   0.410E+01 0.520E+01 -.300E+01   0.396E+00 0.601E+00 -.282E+00   -.965E-04 0.581E-03 0.453E-04
   0.450E+01 0.553E+01 0.299E+01   -.410E+01 -.520E+01 -.300E+01   -.396E+00 -.601E+00 -.282E+00   0.965E-04 -.581E-03 0.453E-04
 -----------------------------------------------------------------------------------------------
   -.595E-07 -.607E-07 -.583E-01   0.169E-13 0.151E-13 -.409E-13   0.000E+00 -.222E-15 0.594E-01   0.147E-11 0.669E-11 0.783E-03
 
 
 POSITION                                       TOTAL-FORCE (eV/Angst)
 -----------------------------------------------------------------------------------
      0.00000      2.00314      1.68674         0.000000      0.006956     -0.004926
      3.74061      4.40525      4.69266         0.000000     -0.006956     -0.004926
      1.66796      1.11446      0.92974        -0.051972     -0.154887      0.570076
      2.07265      5.29392      3.93566         0.051972      0.154887      0.570076
      5.40857      5.29392      3.93566        -0.051972      0.154887      0.570076
      5.81326      1.11446      0.92974         0.051972     -0.154887      0.570076
      0.00000      3.97137      1.18129         0.000000     -0.181758     -0.535625
      3.74061      2.43701      4.18721         0.000000      0.181758     -0.535625
      0.00000      1.75966      3.70896         0.000000      0.423093     -0.087643
      3.74061      4.64872      0.70305         0.000000     -0.423093     -0.087643
      0.00000      4.13904      4.63457         0.000000     -0.191027      0.068490
      3.74061      2.26935      1.62866         0.000000      0.191027      0.068490
      1.93610      1.19222      4.71928        -0.012901     -0.275718     -0.290224
      1.80451      5.21616      1.71336         0.012901      0.275718     -0.290224
      5.67671      5.21616      1.71336        -0.012901      0.275718     -0.290224
      5.54512      1.19222      4.71928         0.012901     -0.275718     -0.290224
 -----------------------------------------------------------------------------------
    total drift:                               -0.000000     -0.000000      0.001923


--------------------------------------------------------------------------------------------------------



  FREE ENERGIE OF THE ION-ELECTRON SYSTEM (eV)
  ---------------------------------------------------
  free  energy   TOTEN  =       -77.06107787 eV

  energy  without entropy=      -77.06107787  energy(sigma->0) =      -77.06107787
 


--------------------------------------------------------------------------------------------------------


    POTLOK:  cpu time    0.0148: real time    0.0148


--------------------------------------------------------------------------------------------------------


     LOOP+:  cpu time    3.3199: real time    3.4324
    4ORBIT:  cpu time    0.0000: real time    0.0000
 BZINTS: Fermi energy:  2.277811; 76.000000 electrons
         Band energy:-669.864449;  BLOECHL correction:  0.000000

 total amount of memory used by VASP MPI-rank0    33919. kBytes
=======================================================================

   base      :      30000. kBytes
   nonlr-proj:       1300. kBytes
   fftplans  :        734. kBytes
   grid      :       1311. kBytes
   one-center:          3. kBytes
   wavefun   :        571. kBytes
 
  
  
 General timing and accounting informations for this job:
 ========================================================
  
                  Total CPU time used (sec):        4.280
                            User time (sec):        3.829
                          System time (sec):        0.451
                         Elapsed time (sec):        5.685
  
                   Maximum memory used (kb):      142728.
                   Average memory used (kb):           0.
  
                          Minor page faults:        20790
                          Major page faults:          109
                 Voluntary context switches:         2054
.71327         0.192768     -0.577384     -0.681003
 -----------------------------------------------------------------------------------
    total drift:                               -0.000000      0.000000      0.004348


--------------------------------------------------------------------------------------------------------



  FREE ENERGIE OF THE ION-ELECTRON SYSTEM (eV)
  ---------------------------------------------------
  free  energy   TOTEN  =       -75.92656373 eV

  energy  without entropy=      -75.92656373  energy(sigma->0) =      -75.92656373
 


--------------------------------------------------------------------------------------------------------


    POTLOK:  cpu time    0.0129: real time    0.0131


--------------------------------------------------------------------------------------------------------


     LOOP+:  cpu time    3.4587: real time    3.5823
    4ORBIT:  cpu time    0.0000: real time    0.0000
 BZINTS: Fermi energy:  2.483728; 76.000000 electrons
         Band energy:-669.363355;  BLOECHL correction:  0.000000

 total amount of memory used by VASP MPI-rank0    33922. kBytes
=======================================================================

   base      :      30000. kBytes
   nonlr-proj:       1303. kBytes
   fftplans  :        734. kBytes
   grid      :       1311. kBytes
   one-center:          3. kBytes
   wavefun   :        571. kBytes
 
  
  
 General timing and accounting informations for this job:
 ========================================================
  
                  Total CPU time used (sec):        4.448
                            User time (sec):        3.974
                          System time (sec):        0.474
                         Elapsed time (sec):        5.875
  
                   Maximum memory used (kb):      143156.
                   Average memory used (kb):           0.
  
                          Minor page faults:        20791
                          Major page faults:          115
                 Voluntary context switches:         2014
