 vasp.5.4.4.18Apr17-6-g9f103f2a35 (build Feb 28 2020 14:15:47) complex          
  
 executed on             LinuxIFC date 2022.08.06  16:07:11
 running on   64 total cores
 distrk:  each k-point on   64 cores,    1 groups
 distr:  one band on NCORES_PER_BAND=  16 cores,    4 groups


--------------------------------------------------------------------------------------------------------


 INCAR:
 POTCAR:    PAW P 26Mar2009                       
 POTCAR:    PAW S 27Mar2009                       
 POTCAR:    PAW Li_sv 10Sep2004                   
 POTCAR:    PAW P 26Mar2009                       
   VRHFIN =P : s2p3                                                             
   LEXCH  = CA                                                                  
   EATOM  =   176.5121 eV,   12.9733 Ry                                         
                                                                                
   TITEL  = PAW P 26Mar2009                                                     
   LULTRA =        F    use ultrasoft PP ?                                      
   IUNSCR =        1    unscreen: 0-lin 1-nonlin 2-no                           
   RPACOR =    1.500    partial core radius                                     
   POMASS =   30.974; ZVAL   =    5.000    mass and valenz                      
   RCORE  =    1.900    outmost cutoff radius                                   
   RWIGS  =    2.330; RWIGS  =    1.233    wigner-seitz radius (au A)           
   ENMAX  =  255.155; ENMIN  =  191.366 eV                                      
   ICORE  =        2    local potential                                         
   LCOR   =        T    correct aug charges                                     
   LPAW   =        T    paw PP                                                  
   EAUG   =  342.924                                                            
   DEXC   =    0.000                                                            
   RMAX   =    1.935    core radius for proj-oper                               
   RAUG   =    1.300    factor for augmentation sphere                          
   RDEP   =    1.931    radius for radial grids                                 
   RDEPT  =    1.780    core radius for aug-charge                              
                                                                                
   Atomic configuration                                                         
    6 entries                                                                   
     n  l   j            E        occ.                                          
     1  0  0.50     -2072.7761   2.0000                                         
     2  0  0.50      -172.9483   2.0000                                         
     2  1  1.50      -124.4644   6.0000                                         
     3  0  0.50       -14.0086   2.0000                                         
     3  1  0.50        -5.6037   3.0000                                         
     3  2  1.50        -6.8029   0.0000                                         
   Description                                                                  
     l       E           TYP  RCUT    TYP  RCUT                                 
     0    -14.0086211     23  1.900                                             
     0    -11.8189335     23  1.900                                             
     1     -5.6037292     23  1.900                                             
     1     -0.3527308     23  1.900                                             
     2     -6.8029130     23  1.900                                             
  local pseudopotential read in
  partial core-charges read in
  partial kinetic energy density read in
  atomic valenz-charges read in
  non local Contribution for L=           0  read in
    real space projection operators read in
  non local Contribution for L=           0  read in
    real space projection operators read in
  non local Contribution for L=           1  read in
    real space projection operators read in
  non local Contribution for L=           1  read in
    real space projection operators read in
    PAW grid and wavefunctions read in
 
   number of l-projection  operators is LMAX  =           4
   number of lm-projection operators is LMMAX =           8
 
 POTCAR:    PAW S 27Mar2009                       
   VRHFIN =S : s2p4                                                             
   LEXCH  = CA                                                                  
   EATOM  =   277.3745 eV,   20.3864 Ry                                         
                                                                                
   TITEL  = PAW S 27Mar2009                                                     
   LULTRA =        F    use ultrasoft PP ?                                      
   IUNSCR =        1    unscreen: 0-lin 1-nonlin 2-no                           
   RPACOR =    1.500    partial core radius                                     
   POMASS =   32.066; ZVAL   =    6.000    mass and valenz                      
   RCORE  =    1.900    outmost cutoff radius                                   
   RWIGS  =    2.200; RWIGS  =    1.164    wigner-seitz radius (au A)           
   ENMAX  =  258.602; ENMIN  =  193.952 eV                                      
   ICORE  =        2    local potential                                         
   LCOR   =        T    correct aug charges                                     
   LPAW   =        T    paw PP                                                  
   EAUG   =  335.092                                                            
   DEXC   =    0.000                                                            
   RMAX   =    1.942    core radius for proj-oper                               
   RAUG   =    1.300    factor for augmentation sphere                          
   RDEP   =    1.954    radius for radial grids                                 
   RDEPT  =    1.744    core radius for aug-charge                              
                                                                                
   Atomic configuration                                                         
    6 entries                                                                   
     n  l   j            E        occ.                                          
     1  0  0.50     -2393.1495   2.0000                                         
     2  0  0.50      -210.5411   2.0000                                         
     2  1  1.50      -156.4410   6.0000                                         
     3  0  0.50       -17.2664   2.0000                                         
     3  1  0.50        -7.1129   4.0000                                         
     3  2  1.50        -8.1635   0.0000                                         
   Description                                                                  
     l       E           TYP  RCUT    TYP  RCUT                                 
     0    -17.2664422     23  1.900                                             
     0    -15.8420823     23  1.900                                             
     1     -7.1129072     23  1.900                                             
     1     -2.8398274     23  1.900                                             
     2     -8.1634956     23  1.900                                             
  local pseudopotential read in
  partial core-charges read in
  partial kinetic energy density read in
  atomic valenz-charges read in
  non local Contribution for L=           0  read in
    real space projection operators read in
  non local Contribution for L=           0  read in
    real space projection operators read in
  non local Contribution for L=           1  read in
    real space projection operators read in
  non local Contribution for L=           1  read in
    real space projection operators read in
    PAW grid and wavefunctions read in
 
   number of l-projection  operators is LMAX  =           4
   number of lm-projection operators is LMMAX =           8
 
 POTCAR:    PAW Li_sv 10Sep2004                   
   VRHFIN =Li: 1s2s                                                             
   LEXCH  = CA                                                                  
   EATOM  =   199.5738 eV,   14.6683 Ry                                         
                                                                                
   TITEL  = PAW Li_sv 10Sep2004                                                 
   LULTRA =        F    use ultrasoft PP ?                                      
   IUNSCR =        0    unscreen: 0-lin 1-nonlin 2-no                           
   RPACOR =    0.000    partial core radius                                     
   POMASS =    7.010; ZVAL   =    3.000    mass and valenz                      
   RCORE  =    1.700    outmost cutoff radius                                   
   RWIGS  =    2.050; RWIGS  =    1.085    wigner-seitz radius (au A)           
   ENMAX  =  498.387; ENMIN  =  373.790 eV                                      
   ICORE  =        2    local potential                                         
   LCOR   =        T    correct aug charges                                     
   LPAW   =        T    paw PP                                                  
   EAUG   =  628.945                                                            
   RMAX   =    1.732    core radius for proj-oper                               
   RAUG   =    1.300    factor for augmentation sphere                          
   RDEP   =    1.728    radius for radial grids                                 
   RDEPT  =    1.329    core radius for aug-charge                              
                                                                                
   Atomic configuration                                                         
    4 entries                                                                   
     n  l   j            E        occ.                                          
     1  0  0.50       -51.0884   2.0000                                         
     2  0  0.50        -2.8766   1.0000                                         
     2  1  0.50        -2.8708   0.0000                                         
     3  2  1.50        -1.3606   0.0000                                         
   Description                                                                  
     l       E           TYP  RCUT    TYP  RCUT                                 
     0    -51.0884324     23  1.400                                             
     0     -2.8766458     23  1.700                                             
     1     -2.8708293     23  1.400                                             
     2     -1.3605826     23  1.400                                             
  local pseudopotential read in
  atomic valenz-charges read in
  non local Contribution for L=           0  read in
    real space projection operators read in
  non local Contribution for L=           0  read in
    real space projection operators read in
  non local Contribution for L=           1  read in
    real space projection operators read in
    PAW grid and wavefunctions read in
 
   number of l-projection  operators is LMAX  =           3
   number of lm-projection operators is LMMAX =           5
 
 Optimization of the real space projectors (new method)

 maximal supplied QI-value         = 19.84
 optimisation between [QCUT,QGAM] = [ 10.32, 20.83] = [ 29.81,121.55] Ry 
 Optimized for a Real-space Cutoff    1.39 Angstroem

   l    n(q)    QCUT    max X(q) W(low)/X(q) W(high)/X(q)  e(spline) 
   0      9    10.318   158.476    0.64E-04    0.80E-04    0.60E-07
   0      9    10.318   128.097    0.63E-04    0.79E-04    0.60E-07
   1      8    10.318    73.217    0.18E-03    0.19E-03    0.20E-06
   1      8    10.318    48.248    0.18E-03    0.19E-03    0.19E-06
 Optimization of the real space projectors (new method)

 maximal supplied QI-value         = 19.84
 optimisation between [QCUT,QGAM] = [ 10.32, 20.83] = [ 29.81,121.55] Ry 
 Optimized for a Real-space Cutoff    1.39 Angstroem

   l    n(q)    QCUT    max X(q) W(low)/X(q) W(high)/X(q)  e(spline) 
   0      9    10.318   180.455    0.73E-04    0.81E-04    0.62E-07
   0      9    10.318   157.733    0.72E-04    0.81E-04    0.62E-07
   1      8    10.318    66.201    0.18E-03    0.20E-03    0.20E-06
   1      8    10.318    49.617    0.18E-03    0.20E-03    0.20E-06
 Optimization of the real space projectors (new method)

 maximal supplied QI-value         = 22.11
 optimisation between [QCUT,QGAM] = [ 10.39, 20.78] = [ 30.24,120.96] Ry 
 Optimized for a Real-space Cutoff    1.20 Angstroem

   l    n(q)    QCUT    max X(q) W(low)/X(q) W(high)/X(q)  e(spline) 
   0      7    10.392    10.443    0.77E-04    0.41E-05    0.30E-07
   0      7    10.392     8.514    0.20E-03    0.36E-04    0.67E-07
   1      7    10.392     5.406    0.20E-03    0.20E-03    0.12E-06
  PAW P 26Mar2009                       :
 energy of atom  1       EATOM= -176.5121
 kinetic energy error for atom=    0.0021 (will be added to EATOM!!)
  PAW S 27Mar2009                       :
 energy of atom  2       EATOM= -277.3745
 kinetic energy error for atom=    0.0041 (will be added to EATOM!!)
  PAW Li_sv 10Sep2004                   :
 energy of atom  3       EATOM= -199.5738
 kinetic energy error for atom=    0.0564 (will be added to EATOM!!)
 
 
 POSCAR: Good luck                               
  positions in cartesian coordinates
  No initial velocities read in
 exchange correlation table for  LEXCH =        2
   RHO(1)=    0.500       N(1)  =     2000
   RHO(2)=  100.500       N(2)  =     4000
 


--------------------------------------------------------------------------------------------------------


 ion  position               nearest neighbor table
   1  0.000  0.473  0.854-   3 2.00   6 2.00   9 2.00   7 2.00  13 2.54  16 2.54
   2  0.500  0.527  0.354-   4 2.00   5 2.00   8 2.00  10 2.00  14 2.54  15 2.54
   3  0.236  0.458  0.688-   1 2.00  16 2.23   8 2.58  15 2.58
   4  0.264  0.542  0.188-   2 2.00  15 2.23   7 2.58  16 2.58
   5  0.736  0.542  0.188-   2 2.00  14 2.23   7 2.58  13 2.58
   6  0.764  0.458  0.688-   1 2.00  13 2.23   8 2.58  14 2.58
   7  0.000  0.722  0.999-   1 2.00  13 2.06  16 2.06   5 2.58   4 2.58
   8  0.500  0.278  0.499-   2 2.00  14 2.06  15 2.06   6 2.58   3 2.58
   9  0.000  0.253  0.040-   1 2.00  11 2.69
  10  0.500  0.747  0.540-   2 2.00  12 2.69
  11  0.000  0.091  0.392-  14 2.08  15 2.08   9 2.69
  12  0.500  0.909  0.892-  13 2.08  16 2.08  10 2.69
  13  0.735  0.726  0.864-   7 2.06  12 2.08   6 2.23   1 2.54   5 2.58
  14  0.765  0.274  0.364-   8 2.06  11 2.08   5 2.23   2 2.54   6 2.58
  15  0.235  0.274  0.364-   8 2.06  11 2.08   4 2.23   2 2.54   3 2.58
  16  0.265  0.726  0.864-   7 2.06  12 2.08   3 2.23   1 2.54   4 2.58
 
  LATTYP: Found a simple cubic cell.
 ALAT       =     6.9336127435
  
  Lattice vectors:
  
 A1 = (   6.9336127435,   0.0000000000,   0.0000000000)
 A2 = (   0.0000000000,   6.9336127435,   0.0000000000)
 A3 = (   0.0000000000,   0.0000000000,   6.9336127435)


Analysis of symmetry for initial positions (statically):
=====================================================================
 Subroutine PRICEL returns:
 Original cell was already a primitive cell.
 

 Routine SETGRP: Setting up the symmetry group for a 
 simple cubic supercell.


 Subroutine GETGRP returns: Found  4 space group operations
 (whereof  2 operations were pure point group operations)
 out of a pool of 48 trial point group operations.


The static configuration has the point symmetry C_1h.
 The point group associated with its full space group is C_2v.


Analysis of symmetry for dynamics (positions and initial velocities):
=====================================================================
 Subroutine PRICEL returns:
 Original cell was already a primitive cell.
 

 Routine SETGRP: Setting up the symmetry group for a 
 simple cubic supercell.


 Subroutine GETGRP returns: Found  4 space group operations
 (whereof  2 operations were pure point group operations)
 out of a pool of 48 trial point group operations.


The dynamic configuration has the point symmetry C_1h.
 The point group associated with its full space group is C_2v.


 Subroutine INISYM returns: Found  4 space group operations
 (whereof  2 operations are pure point group operations),
 and found     1 'primitive' translations

 
 
 KPOINTS: Automatic mesh                          

Automatic generation of k-mesh.
Space group operators:
 irot       det(A)        alpha          n_x          n_y          n_z        tau_x        tau_y        tau_z
    1     1.000000     0.000000     1.000000     0.000000     0.000000     0.000000     0.000000     0.000000
    2    -1.000000   180.000000     1.000000     0.000000     0.000000     0.000000     0.000000     0.000000
    3     1.000000   180.000000     0.000000     0.000000     1.000000     0.500000     0.000000     0.500000
    4    -1.000000   180.000000     0.000000     1.000000     0.000000     0.500000     0.000000     0.500000
 
 Subroutine IBZKPT returns following result:
 ===========================================
 
 Found      8 irreducible k-points:
 
 Following reciprocal coordinates:
            Coordinates               Weight
  0.000000  0.000000  0.000000      1.000000
  0.333333  0.000000  0.000000      2.000000
  0.000000  0.333333  0.000000      2.000000
  0.333333  0.333333  0.000000      4.000000
  0.000000  0.000000  0.333333      2.000000
  0.333333  0.000000  0.333333      4.000000
  0.000000  0.333333  0.333333      4.000000
  0.333333  0.333333  0.333333      8.000000
 
 Following cartesian coordinates:
            Coordinates               Weight
  0.000000  0.000000  0.000000      1.000000
  0.048075  0.000000  0.000000      2.000000
  0.000000  0.048075  0.000000      2.000000
  0.048075  0.048075  0.000000      4.000000
  0.000000  0.000000  0.048075      2.000000
  0.048075  0.000000  0.048075      4.000000
  0.000000  0.048075  0.048075      4.000000
  0.048075  0.048075  0.048075      8.000000
 
 TETIRR: Found     70 inequivalent tetrahedra from      162


--------------------------------------------------------------------------------------------------------




 Dimension of arrays:
   k-points           NKPTS =      8   k-points in BZ     NKDIM =      8   number of bands    NBANDS=     48
   number of dos      NEDOS =    301   number of ions     NIONS =     16
   non local maximal  LDIM  =      4   non local SUM 2l+1 LMDIM =      8
   total plane-waves  NPLWV = 110592
   max r-space proj   IRMAX =   3763   max aug-charges    IRDMAX=  10651
   dimension x,y,z NGX =    48 NGY =   48 NGZ =   48
   dimension x,y,z NGXF=    96 NGYF=   96 NGZF=   96
   support grid    NGXF=    96 NGYF=   96 NGZF=   96
   ions per type =               2   8   6
   NGX,Y,Z   is equivalent  to a cutoff of  11.51, 11.51, 11.51 a.u.
   NGXF,Y,Z  is equivalent  to a cutoff of  23.02, 23.02, 23.02 a.u.

 SYSTEM =  unknown system                          
 POSCAR =  Good luck                               

 Startparameter for this run:
   NWRITE =      2    write-flag & timer
   PREC   = accura    normal or accurate (medium, high low for compatibility)
   ISTART =      0    job   : 0-new  1-cont  2-samecut
   ICHARG =      2    charge: 1-file 2-atom 10-const
   ISPIN  =      1    spin polarized calculation?
   LNONCOLLINEAR =      F non collinear calculations
   LSORBIT =      F    spin-orbit coupling
   INIWAV =      1    electr: 0-lowe 1-rand  2-diag
   LASPH  =      F    aspherical Exc in radial PAW
   METAGGA=      F    non-selfconsistent MetaGGA calc.

 Electronic Relaxation 1
   ENCUT  =  420.0 eV  30.87 Ry    5.56 a.u.  11.59 11.59 11.59*2*pi/ulx,y,z
   ENINI  =  420.0     initial cutoff
   ENAUG  =  628.9 eV  augmentation charge cutoff
   NELM   =    100;   NELMIN=  2; NELMDL= -5     # of ELM steps 
   EDIFF  = 0.2E-04   stopping-criterion for ELM
   LREAL  =      T    real-space projection
   NLSPLINE    = F    spline interpolate recip. space projectors
   LCOMPAT=      F    compatible to vasp.4.4
   GGA_COMPAT  = T    GGA compatible to vasp.4.4-vasp.4.6
   LMAXPAW     = -100 max onsite density
   LMAXMIX     =    2 max onsite mixed and CHGCAR
   VOSKOWN=      0    Vosko Wilk Nusair interpolation
   ROPT   =   -0.00025  -0.00025  -0.00025
 Ionic relaxation
   EDIFFG = 0.2E-03   stopping-criterion for IOM
   NSW    =      0    number of steps for IOM
   NBLOCK =      1;   KBLOCK =      1    inner block; outer block 
   IBRION =     -1    ionic relax: 0-MD 1-quasi-New 2-CG
   NFREE  =      1    steps in history (QN), initial steepest desc. (CG)
   ISIF   =      7    stress and relaxation
   IWAVPR =     10    prediction:  0-non 1-charg 2-wave 3-comb
   ISYM   =      2    0-nonsym 1-usesym 2-fastsym
   LCORR  =      T    Harris-Foulkes like correction to forces

   POTIM  = 0.5000    time-step for ionic-motion
   TEIN   =    0.0    initial temperature
   TEBEG  =    0.0;   TEEND  =   0.0 temperature during run
   SMASS  =  -3.00    Nose mass-parameter (am)
   estimated Nose-frequenzy (Omega)   =  0.10E-29 period in steps =****** mass=  -0.110E-26a.u.
   SCALEE = 1.0000    scale energy and forces
   NPACO  =    256;   APACO  = 16.0  distance and # of slots for P.C.
   PSTRESS=    0.0 pullay stress

  Mass of Ions in am
   POMASS =  30.97 32.07  7.01
  Ionic Valenz
   ZVAL   =   5.00  6.00  3.00
  Atomic Wigner-Seitz radii
   RWIGS  =  -1.00 -1.00 -1.00
  virtual crystal weights 
   VCA    =   1.00  1.00  1.00
   NELECT =      76.0000    total number of electrons
   NUPDOWN=      -1.0000    fix difference up-down

 DOS related values:
   EMIN   =  10.00;   EMAX   =-10.00  energy-range for DOS
   EFERMI =   0.00
   ISMEAR =    -5;   SIGMA  =   0.20  broadening in eV -4-tet -1-fermi 0-gaus

 Electronic relaxation 2 (details)
   IALGO  =     68    algorithm
   LDIAG  =      T    sub-space diagonalisation (order eigenvalues)
   LSUBROT=      F    optimize rotation matrix (better conditioning)
   TURBO    =      0    0=normal 1=particle mesh
   IRESTART =      0    0=no restart 2=restart with 2 vectors
   NREBOOT  =      0    no. of reboots
   NMIN     =      0    reboot dimension
   EREF     =   0.00    reference energy to select bands
   IMIX   =      4    mixing-type and parameters
     AMIX     =   0.40;   BMIX     =  1.00
     AMIX_MAG =   1.60;   BMIX_MAG =  1.00
     AMIN     =   0.10
     WC   =   100.;   INIMIX=   1;  MIXPRE=   1;  MAXMIX= -45

 Intra band minimization:
   WEIMIN = 0.0000     energy-eigenvalue tresh-hold
   EBREAK =  0.10E-06  absolut break condition
   DEPER  =   0.30     relativ break condition  

   TIME   =   0.40     timestep for ELM

  volume/ion in A,a.u.               =      20.83       140.59
  Fermi-wavevector in a.u.,A,eV,Ry     =   1.000122  1.889957 13.609154  1.000245
  Thomas-Fermi vector in A             =   2.132458
 
 Write flags
   LWAVE        =      F    write WAVECAR
   LDOWNSAMPLE  =      F    k-point downsampling of WAVECAR
   LCHARG       =      F    write CHGCAR
   LVTOT        =      F    write LOCPOT, total local potential
   LVHAR        =      F    write LOCPOT, Hartree potential only
   LELF         =      F    write electronic localiz. function (ELF)
   LORBIT       =      0    0 simple, 1 ext, 2 COOP (PROOUT), +10 PAW based schemes


 Dipole corrections
   LMONO  =      F    monopole corrections only (constant potential shift)
   LDIPOL =      F    correct potential (dipole corrections)
   IDIPOL =      0    1-x, 2-y, 3-z, 4-all directions 
   EPSILON=  1.0000000 bulk dielectric constant

 Exchange correlation treatment:
   GGA     =    --    GGA type
   LEXCH   =     2    internal setting for exchange type
   VOSKOWN=      0    Vosko Wilk Nusair interpolation
   LHFCALC =     F    Hartree Fock is set to
   LHFONE  =     F    Hartree Fock one center treatment
   AEXX    =    0.0000 exact exchange contribution

 Linear response parameters
   LEPSILON=     F    determine dielectric tensor
   LRPA    =     F    only Hartree local field effects (RPA)
   LNABLA  =     F    use nabla operator in PAW spheres
   LVEL    =     F    velocity operator in full k-point grid
   LINTERFAST=   F  fast interpolation
   KINTER  =     0    interpolate to denser k-point grid
   CSHIFT  =0.1000    complex shift for real part using Kramers Kronig
   OMEGAMAX=  -1.0    maximum frequency
   DEG_THRESHOLD= 0.2000000E-02 threshold for treating states as degnerate
   RTIME   =   -0.100 relaxation time in fs
  (WPLASMAI=    0.000 imaginary part of plasma frequency in eV, 0.658/RTIME)
   DFIELD  = 0.0000000 0.0000000 0.0000000 field for delta impulse in time
 
 Orbital magnetization related:
   ORBITALMAG=     F  switch on orbital magnetization
   LCHIMAG   =     F  perturbation theory with respect to B field
   DQ        =  0.001000  dq finite difference perturbation B field
   LLRAUG    =     F  two centre corrections for induced B field



--------------------------------------------------------------------------------------------------------


 Static calculation
 charge density and potential will be updated during run
 non-spin polarized calculation
 RMM-DIIS sequential band-by-band and
  variant of blocked Davidson during initial phase
 perform sub-space diagonalisation
    before iterative eigenvector-optimisation
 modified Broyden-mixing scheme, WC =      100.0
 initial mixing is a Kerker type mixing with AMIX =  0.4000 and BMIX =      1.0000
 Hartree-type preconditioning will be used
 using additional bands           10
 real space projection scheme for non local part
 use partial core corrections
 calculate Harris-corrections to forces 
   (improved forces if not selfconsistent)
 use of overlap-Matrix (Vanderbilt PP)
 Fermi weights with tetrahedron method with Bloechl corrections


--------------------------------------------------------------------------------------------------------


  energy-cutoff  :      420.00
  volume of cell :      333.33
      direct lattice vectors                 reciprocal lattice vectors
     6.933612744  0.000000000  0.000000000     0.144224957  0.000000000  0.000000000
     0.000000000  6.933612744  0.000000000     0.000000000  0.144224957  0.000000000
     0.000000000  0.000000000  6.933612744     0.000000000  0.000000000  0.144224957

  length of vectors
     6.933612744  6.933612744  6.933612744     0.144224957  0.144224957  0.144224957


 
 k-points in units of 2pi/SCALE and weight: Automatic mesh                          
   0.00000000  0.00000000  0.00000000       0.037
   0.04807499  0.00000000  0.00000000       0.074
   0.00000000  0.04807499  0.00000000       0.074
   0.04807499  0.04807499  0.00000000       0.148
   0.00000000  0.00000000  0.04807499       0.074
   0.04807499  0.00000000  0.04807499       0.148
   0.00000000  0.04807499  0.04807499       0.148
   0.04807499  0.04807499  0.04807499       0.296
 
 k-points in reciprocal lattice and weights: Automatic mesh                          
   0.00000000  0.00000000  0.00000000       0.037
   0.33333333  0.00000000  0.00000000       0.074
   0.00000000  0.33333333  0.00000000       0.074
   0.33333333  0.33333333  0.00000000       0.148
   0.00000000  0.00000000  0.33333333       0.074
   0.33333333  0.00000000  0.33333333       0.148
   0.00000000  0.33333333  0.33333333       0.148
   0.33333333  0.33333333  0.33333333       0.296
 
 position of ions in fractional coordinates (direct lattice) 
   0.00000000  0.47292775  0.85384166
   0.50000000  0.52707225  0.35384166
   0.23551848  0.45841312  0.68793867
   0.26448152  0.54158688  0.18793867
   0.73551848  0.54158688  0.18793867
   0.76448152  0.45841312  0.68793867
   0.00000000  0.72206464  0.99921786
   0.50000000  0.27793536  0.49921786
   0.00000000  0.25282012  0.04027144
   0.50000000  0.74717988  0.54027144
   0.00000000  0.09063445  0.39216426
   0.50000000  0.90936555  0.89216426
   0.73542639  0.72623647  0.86433876
   0.76457361  0.27376353  0.36433876
   0.23542639  0.27376353  0.36433876
   0.26457361  0.72623647  0.86433876
 
 position of ions in cartesian coordinates  (Angst):
   0.00000000  3.27909789  5.92020741
   3.46680637  3.65451486  2.45340104
   1.63299392  3.17845906  4.76990032
   1.83381245  3.75515369  1.30309395
   5.09980030  3.75515369  1.30309395
   5.30061882  3.17845906  4.76990032
   0.00000000  5.00651660  6.92818970
   3.46680637  1.92709614  3.46138333
   0.00000000  1.75295683  0.27922655
   3.46680637  5.18065592  3.74603292
   0.00000000  0.62842416  2.71911509
   3.46680637  6.30518858  6.18592146
   5.09916179  5.03544244  5.99299023
   5.30125733  1.89817030  2.52618386
   1.63235542  1.89817030  2.52618386
   1.83445095  5.03544244  5.99299023
 


--------------------------------------------------------------------------------------------------------


 k-point  1 :   0.0000 0.0000 0.0000  plane waves:    6619
 k-point  2 :   0.3333 0.0000 0.0000  plane waves:    6515
 k-point  3 :   0.0000 0.3333 0.0000  plane waves:    6515
 k-point  4 :   0.3333 0.3333 0.0000  plane waves:    6512
 k-point  5 :   0.0000 0.0000 0.3333  plane waves:    6515
 k-point  6 :   0.3333 0.0000 0.3333  plane waves:    6512
 k-point  7 :   0.0000 0.3333 0.3333  plane waves:    6512
 k-point  8 :   0.3333 0.3333 0.3333  plane waves:    6497

 maximum and minimum number of plane-waves per node :       427      395

 maximum number of plane-waves:      6619
 maximum index in each direction: 
   IXMAX=   11   IYMAX=   11   IZMAX=   11
   IXMIN=  -11   IYMIN=  -11   IZMIN=  -11


 real space projection operators:
  total allocation   :       2801.59 KBytes
  max/ min on nodes  :        176.02        173.83


 parallel 3D FFT for wavefunctions:
    minimum data exchange during FFTs selected (reduces bandwidth)
 parallel 3D FFT for charge:
    minimum data exchange during FFTs selected (reduces bandwidth)


 total amount of memory used by VASP MPI-rank0    34160. kBytes
=======================================================================

   base      :      30000. kBytes
   nonlr-proj:       1238. kBytes
   fftplans  :        805. kBytes
   grid      :       1476. kBytes
   one-center:          3. kBytes
   wavefun   :        638. kBytes
 
     INWAV:  cpu time    0.0000: real time    0.0000
 Broyden mixing: mesh for mixing (old mesh)
   NGX = 23   NGY = 23   NGZ = 23
  (NGX  = 96   NGY  = 96   NGZ  = 96)
  gives a total of  12167 points

 initial charge density was supplied:
 charge density of overlapping atoms calculated
 number of electron      76.0000000 magnetization 
 keeping initial charge density in first step


--------------------------------------------------------------------------------------------------------


 Maximum index for non-local projection operator          287
 Maximum index for augmentation-charges          571 (set IRDMAX)


--------------------------------------------------------------------------------------------------------


 First call to EWALD:  gamma=   0.256
 Maximum number of real-space cells 3x 3x 3
 Maximum number of reciprocal cells 3x 3x 3

    FEWALD:  cpu time    0.0016: real time    0.0016


--------------------------------------- Iteration      1(   1)  ---------------------------------------


    POTLOK:  cpu time    0.0073: real time    0.0187
    SETDIJ:  cpu time    0.0075: real time    0.0092
     EDDAV:  cpu time    0.1992: real time    0.2170
 BZINTS: Fermi energy: 14.076062; 76.000000 electrons
         Band energy:-200.437415;  BLOECHL correction: -0.118752
       DOS:  cpu time    0.0043: real time    0.0050
    --------------------------------------------
      LOOP:  cpu time    0.2183: real time    0.2499

 eigenvalue-minimisations  :   768
 total energy-change (2. order) : 0.5463090E+03  (-0.2842331E+04)
 number of electron      76.0000000 magnetization 
 augmentation part       76.0000000 magnetization 

 Free energy of the ion-electron system (eV)
  ---------------------------------------------------
  alpha Z        PSCENC =        59.19887464
  Ewald energy   TEWEN  =     -2036.33283089
  -Hartree energ DENC   =     -1181.15488514
  -exchange      EXHF   =         0.00000000
  -V(xc)+E(xc)   XCENC  =       182.84518268
  PAW double counting   =      2494.22442938    -2541.12215007
  entropy T*S    EENTRO =         0.00000000
  eigenvalues    EBANDS =      -200.43741548
  atomic energy  EATOM  =      3769.08782378
  Solvation  Ediel_sol  =         0.00000000
  ---------------------------------------------------
  free energy    TOTEN  =       546.30902891 eV

  energy without entropy =      546.30902891  energy(sigma->0) =      546.30902891


--------------------------------------------------------------------------------------------------------




--------------------------------------- Iteration      1(   2)  ---------------------------------------


     EDDAV:  cpu time    0.1962: real time    0.1972
 BZINTS: Fermi energy:  4.892435; 76.000000 electrons
         Band energy:-728.385711;  BLOECHL correction:  0.000000
       DOS:  cpu time    0.0009: real time    0.0009
    --------------------------------------------
      LOOP:  cpu time    0.1971: real time    0.1980

 eigenvalue-minimisations  :   896
 total energy-change (2. order) :-0.5279483E+03  (-0.5040119E+03)
 number of electron      76.0000000 magnetization 
 augmentation part       76.0000000 magnetization 

 Free energy of the ion-electron system (eV)
  ---------------------------------------------------
  alpha Z        PSCENC =        59.19887464
  Ewald energy   TEWEN  =     -2036.33283089
  -Hartree energ DENC   =     -1181.15488514
  -exchange      EXHF   =         0.00000000
  -V(xc)+E(xc)   XCENC  =       182.84518268
  PAW double counting   =      2494.22442938    -2541.12215007
  entropy T*S    EENTRO =         0.00000000
  eigenvalues    EBANDS =      -728.38571075
  atomic energy  EATOM  =      3769.08782378
  Solvation  Ediel_sol  =         0.00000000
  ---------------------------------------------------
  free energy    TOTEN  =        18.36073363 eV

  energy without entropy =       18.36073363  energy(sigma->0) =       18.36073363


--------------------------------------------------------------------------------------------------------




--------------------------------------- Iteration      1(   3)  ---------------------------------------


     EDDAV:  cpu time    0.2204: real time    0.2239
 BZINTS: Fermi energy:  1.981590; 76.000000 electrons
         Band energy:-804.656640;  BLOECHL correction:  0.000000
       DOS:  cpu time    0.0007: real time    0.0007
    --------------------------------------------
      LOOP:  cpu time    0.2211: real time    0.2247

 eigenvalue-minimisations  :  1072
 total energy-change (2. order) :-0.7627093E+02  (-0.7498386E+02)
 number of electron      76.0000000 magnetization 
 augmentation part       76.0000000 magnetization 

 Free energy of the ion-electron system (eV)
  ---------------------------------------------------
  alpha Z        PSCENC =        59.19887464
  Ewald energy   TEWEN  =     -2036.33283089
  -Hartree energ DENC   =     -1181.15488514
  -exchange      EXHF   =         0.00000000
  -V(xc)+E(xc)   XCENC  =       182.84518268
  PAW double counting   =      2494.22442938    -2541.12215007
  entropy T*S    EENTRO =         0.00000000
  eigenvalues    EBANDS =      -804.65663995
  atomic energy  EATOM  =      3769.08782378
  Solvation  Ediel_sol  =         0.00000000
  ---------------------------------------------------
  free energy    TOTEN  =       -57.91019557 eV

  energy without entropy =      -57.91019557  energy(sigma->0) =      -57.91019557


--------------------------------------------------------------------------------------------------------




--------------------------------------- Iteration      1(   4)  ---------------------------------------


     EDDAV:  cpu time    0.2812: real time    0.2812
 BZINTS: Fermi energy:  1.843799; 76.000000 electrons
         Band energy:-812.881065;  BLOECHL correction:  0.000000
       DOS:  cpu time    0.0008: real time    0.0008
    --------------------------------------------
      LOOP:  cpu time    0.2821: real time    0.2821

 eigenvalue-minimisations  :  1448
 total energy-change (2. order) :-0.8224425E+01  (-0.8131228E+01)
 number of electron      76.0000000 magnetization 
 augmentation part       76.0000000 magnetization 

 Free energy of the ion-electron system (eV)
  ---------------------------------------------------
  alpha Z        PSCENC =        59.19887464
  Ewald energy   TEWEN  =     -2036.33283089
  -Hartree energ DENC   =     -1181.15488514
  -exchange      EXHF   =         0.00000000
  -V(xc)+E(xc)   XCENC  =       182.84518268
  PAW double counting   =      2494.22442938    -2541.12215007
  entropy T*S    EENTRO =         0.00000000
  eigenvalues    EBANDS =      -812.88106494
  atomic energy  EATOM  =      3769.08782378
  Solvation  Ediel_sol  =         0.00000000
  ---------------------------------------------------
  free energy    TOTEN  =       -66.13462056 eV

  energy without entropy =      -66.13462056  energy(sigma->0) =      -66.13462056


--------------------------------------------------------------------------------------------------------




--------------------------------------- Iteration      1(   5)  ---------------------------------------


     EDDAV:  cpu time    0.2463: real time    0.2463
 BZINTS: Fermi energy:  1.875075; 76.000000 electrons
         Band energy:-814.246365;  BLOECHL correction:  0.000000
       DOS:  cpu time    0.0008: real time    0.0008
    CHARGE:  cpu time    0.0155: real time    0.0156
    MIXING:  cpu time    0.0012: real time    0.0041
    --------------------------------------------
      LOOP:  cpu time    0.2638: real time    0.2669

 eigenvalue-minimisations  :  1208
 total energy-change (2. order) :-0.1365301E+01  (-0.1364552E+01)
 number of electron      76.0000001 magnetization 
 augmentation part       -1.9563897 magnetization 

 Broyden mixing:
  rms(total) = 0.30901E+01    rms(broyden)= 0.30895E+01
  rms(prec ) = 0.34423E+01
  weight for this iteration     100.00

 Free energy of the ion-electron system (eV)
  ---------------------------------------------------
  alpha Z        PSCENC =        59.19887464
  Ewald energy   TEWEN  =     -2036.33283089
  -Hartree energ DENC   =     -1181.15488514
  -exchange      EXHF   =         0.00000000
  -V(xc)+E(xc)   XCENC  =       182.84518268
  PAW double counting   =      2494.22442938    -2541.12215007
  entropy T*S    EENTRO =         0.00000000
  eigenvalues    EBANDS =      -814.24636545
  atomic energy  EATOM  =      3769.08782378
  Solvation  Ediel_sol  =         0.00000000
  ---------------------------------------------------
  free energy    TOTEN  =       -67.49992107 eV

  energy without entropy =      -67.49992107  energy(sigma->0) =      -67.49992107


--------------------------------------------------------------------------------------------------------




--------------------------------------- Iteration      1(   6)  ---------------------------------------


    POTLOK:  cpu time    0.0035: real time    0.0035
    SETDIJ:  cpu time    0.0008: real time    0.0008
    EDDIAG:  cpu time    0.0506: real time    0.0533
  RMM-DIIS:  cpu time    0.0890: real time    0.0942
    ORTHCH:  cpu time    0.0080: real time    0.0080
 BZINTS: Fermi energy:  2.650579; 76.000000 electrons
         Band energy:-772.860037;  BLOECHL correction:  0.000000
       DOS:  cpu time    0.0008: real time    0.0008
    CHARGE:  cpu time    0.0143: real time    0.0143
    MIXING:  cpu time    0.0004: real time    0.0004
    --------------------------------------------
      LOOP:  cpu time    0.1674: real time    0.1753

 eigenvalue-minimisations  :   997
 total energy-change (2. order) : 0.3621552E+01  (-0.7580691E+00)
 number of electron      76.0000001 magnetization 
 augmentation part       -1.8894853 magnetization 

 Broyden mixing:
  rms(total) = 0.19153E+01    rms(broyden)= 0.19153E+01
  rms(prec ) = 0.20598E+01
  weight for this iteration     100.00

 eigenvalues of (default mixing * dielectric matrix)
  average eigenvalue GAMMA=   2.4683
  2.4683

 Free energy of the ion-electron system (eV)
  ---------------------------------------------------
  alpha Z        PSCENC =        59.19887464
  Ewald energy   TEWEN  =     -2036.33283089
  -Hartree energ DENC   =     -1219.12936493
  -exchange      EXHF   =         0.00000000
  -V(xc)+E(xc)   XCENC  =       184.96415389
  PAW double counting   =      4372.57833237    -4421.38532042
  entropy T*S    EENTRO =         0.00000000
  eigenvalues    EBANDS =      -772.86003746
  atomic energy  EATOM  =      3769.08782378
  Solvation  Ediel_sol  =         0.00000000
  ---------------------------------------------------
  free energy    TOTEN  =       -63.87836902 eV

  energy without entropy =      -63.87836902  energy(sigma->0) =      -63.87836902


--------------------------------------------------------------------------------------------------------




--------------------------------------- Iteration      1(   7)  ---------------------------------------


    POTLOK:  cpu time    0.0033: real time    0.0033
    SETDIJ:  cpu time    0.0008: real time    0.0008
    EDDIAG:  cpu time    0.0494: real time    0.0494
  RMM-DIIS:  cpu time    0.0890: real time    0.0891
    ORTHCH:  cpu time    0.0078: real time    0.0078
 BZINTS: Fermi energy:  3.361022; 76.000000 electrons
         Band energy:-731.324003;  BLOECHL correction:  0.000000
       DOS:  cpu time    0.0009: real time    0.0009
    CHARGE:  cpu time    0.0144: real time    0.0144
    MIXING:  cpu time    0.0003: real time    0.0003
    --------------------------------------------
      LOOP:  cpu time    0.1660: real time    0.1661

 eigenvalue-minimisations  :  1038
 total energy-change (2. order) : 0.8770770E+00  (-0.6761873E+00)
 number of electron      76.0000001 magnetization 
 augmentation part       -1.8766428 magnetization 

 Broyden mixing:
  rms(total) = 0.36682E+00    rms(broyden)= 0.36655E+00
  rms(prec ) = 0.47492E+00
  weight for this iteration     100.00

 eigenvalues of (default mixing * dielectric matrix)
  average eigenvalue GAMMA=   2.0378
  1.6888  2.3868

 Free energy of the ion-electron system (eV)
  ---------------------------------------------------
  alpha Z        PSCENC =        59.19887464
  Ewald energy   TEWEN  =     -2036.33283089
  -Hartree energ DENC   =     -1260.56521486
  -exchange      EXHF   =         0.00000000
  -V(xc)+E(xc)   XCENC  =       187.31254588
  PAW double counting   =      8392.26708738    -8442.64557472
  entropy T*S    EENTRO =         0.00000000
  eigenvalues    EBANDS =      -731.32400318
  atomic energy  EATOM  =      3769.08782378
  Solvation  Ediel_sol  =         0.00000000
  ---------------------------------------------------
  free energy    TOTEN  =       -63.00129198 eV

  energy without entropy =      -63.00129198  energy(sigma->0) =      -63.00129198


--------------------------------------------------------------------------------------------------------




--------------------------------------- Iteration      1(   8)  ---------------------------------------


    POTLOK:  cpu time    0.0034: real time    0.0034
    SETDIJ:  cpu time    0.0008: real time    0.0008
    EDDIAG:  cpu time    0.0492: real time    0.0492
  RMM-DIIS:  cpu time    0.0866: real time    0.0866
    ORTHCH:  cpu time    0.0077: real time    0.0077
 BZINTS: Fermi energy:  3.088546; 76.000000 electrons
         Band energy:-741.238159;  BLOECHL correction:  0.000000
       DOS:  cpu time    0.0008: real time    0.0008
    CHARGE:  cpu time    0.0143: real time    0.0143
    MIXING:  cpu time    0.0004: real time    0.0004
    --------------------------------------------
      LOOP:  cpu time    0.1632: real time    0.1633

 eigenvalue-minimisations  :  1029
 total energy-change (2. order) : 0.2020804E+00  (-0.9020464E-01)
 number of electron      76.0000001 magnetization 
 augmentation part       -1.9221247 magnetization 

 Broyden mixing:
  rms(total) = 0.79159E-01    rms(broyden)= 0.79145E-01
  rms(prec ) = 0.12897E+00
  weight for this iteration     100.00

 eigenvalues of (default mixing * dielectric matrix)
  average eigenvalue GAMMA=   1.6709
  2.3652  1.1201  1.5275

 Free energy of the ion-electron system (eV)
  ---------------------------------------------------
  alpha Z        PSCENC =        59.19887464
  Ewald energy   TEWEN  =     -2036.33283089
  -Hartree energ DENC   =     -1250.70894479
  -exchange      EXHF   =         0.00000000
  -V(xc)+E(xc)   XCENC  =       186.73192569
  PAW double counting   =      8829.87378395    -8879.41168449
  entropy T*S    EENTRO =         0.00000000
  eigenvalues    EBANDS =      -741.23815947
  atomic energy  EATOM  =      3769.08782378
  Solvation  Ediel_sol  =         0.00000000
  ---------------------------------------------------
  free energy    TOTEN  =       -62.79921158 eV

  energy without entropy =      -62.79921158  energy(sigma->0) =      -62.79921158


--------------------------------------------------------------------------------------------------------




--------------------------------------- Iteration      1(   9)  ---------------------------------------


    POTLOK:  cpu time    0.0035: real time    0.0035
    SETDIJ:  cpu time    0.0008: real time    0.0008
    EDDIAG:  cpu time    0.0492: real time    0.0492
  RMM-DIIS:  cpu time    0.1068: real time    0.1068
    ORTHCH:  cpu time    0.0072: real time    0.0072
 BZINTS: Fermi energy:  3.097080; 76.000000 electrons
         Band energy:-738.243602;  BLOECHL correction:  0.000000
       DOS:  cpu time    0.0008: real time    0.0008
    CHARGE:  cpu time    0.0143: real time    0.0143
    MIXING:  cpu time    0.0004: real time    0.0004
    --------------------------------------------
      LOOP:  cpu time    0.1830: real time    0.1830

 eigenvalue-minimisations  :  1328
 total energy-change (2. order) : 0.1619844E-01  (-0.1087762E-01)
 number of electron      76.0000001 magnetization 
 augmentation part       -1.9383437 magnetization 

 Broyden mixing:
  rms(total) = 0.57036E-01    rms(broyden)= 0.56976E-01
  rms(prec ) = 0.74314E-01
  weight for this iteration     100.00

 eigenvalues of (default mixing * dielectric matrix)
  average eigenvalue GAMMA=   1.6901
  2.1654  2.1654  1.0791  1.3505

 Free energy of the ion-electron system (eV)
  ---------------------------------------------------
  alpha Z        PSCENC =        59.19887464
  Ewald energy   TEWEN  =     -2036.33283089
  -Hartree energ DENC   =     -1253.69803374
  -exchange      EXHF   =         0.00000000
  -V(xc)+E(xc)   XCENC  =       186.88304550
  PAW double counting   =      8872.01754365    -8921.69583435
  entropy T*S    EENTRO =         0.00000000
  eigenvalues    EBANDS =      -738.24360172
  atomic energy  EATOM  =      3769.08782378
  Solvation  Ediel_sol  =         0.00000000
  ---------------------------------------------------
  free energy    TOTEN  =       -62.78301314 eV

  energy without entropy =      -62.78301314  energy(sigma->0) =      -62.78301314


--------------------------------------------------------------------------------------------------------




--------------------------------------- Iteration      1(  10)  ---------------------------------------


    POTLOK:  cpu time    0.0033: real time    0.0033
    SETDIJ:  cpu time    0.0008: real time    0.0008
    EDDIAG:  cpu time    0.0500: real time    0.0500
  RMM-DIIS:  cpu time    0.1091: real time    0.1091
    ORTHCH:  cpu time    0.0080: real time    0.0080
 BZINTS: Fermi energy:  3.097193; 76.000000 electrons
         Band energy:-737.068055;  BLOECHL correction:  0.000000
       DOS:  cpu time    0.0008: real time    0.0008
    CHARGE:  cpu time    0.0155: real time    0.0155
    MIXING:  cpu time    0.0008: real time    0.0008
    --------------------------------------------
      LOOP:  cpu time    0.1884: real time    0.1884

 eigenvalue-minimisations  :  1324
 total energy-change (2. order) :-0.3278100E-02  (-0.3867405E-02)
 number of electron      76.0000001 magnetization 
 augmentation part       -1.9448755 magnetization 

 Broyden mixing:
  rms(total) = 0.30401E-01    rms(broyden)= 0.30345E-01
  rms(prec ) = 0.40210E-01
  weight for this iteration     100.00

 eigenvalues of (default mixing * dielectric matrix)
  average eigenvalue GAMMA=   1.7554
  2.9635  2.2969  1.2838  1.2838  0.9491

 Free energy of the ion-electron system (eV)
  ---------------------------------------------------
  alpha Z        PSCENC =        59.19887464
  Ewald energy   TEWEN  =     -2036.33283089
  -Hartree energ DENC   =     -1254.87949569
  -exchange      EXHF   =         0.00000000
  -V(xc)+E(xc)   XCENC  =       186.92592646
  PAW double counting   =      8683.79111381    -8733.50964786
  entropy T*S    EENTRO =         0.00000000
  eigenvalues    EBANDS =      -737.06805549
  atomic energy  EATOM  =      3769.08782378
  Solvation  Ediel_sol  =         0.00000000
  ---------------------------------------------------
  free energy    TOTEN  =       -62.78629124 eV

  energy without entropy =      -62.78629124  energy(sigma->0) =      -62.78629124


--------------------------------------------------------------------------------------------------------




--------------------------------------- Iteration      1(  11)  ---------------------------------------


    POTLOK:  cpu time    0.0034: real time    0.0034
    SETDIJ:  cpu time    0.0009: real time    0.0009
    EDDIAG:  cpu time    0.0535: real time    0.0535
  RMM-DIIS:  cpu time    0.1016: real time    0.1016
    ORTHCH:  cpu time    0.0078: real time    0.0078
 BZINTS: Fermi energy:  3.097429; 76.000000 electrons
         Band energy:-736.522944;  BLOECHL correction:  0.000000
       DOS:  cpu time    0.0008: real time    0.0008
    CHARGE:  cpu time    0.0144: real time    0.0144
    MIXING:  cpu time    0.0005: real time    0.0005
    --------------------------------------------
      LOOP:  cpu time    0.1827: real time    0.1827

 eigenvalue-minimisations  :  1256
 total energy-change (2. order) :-0.1890597E-02  (-0.1494219E-02)
 number of electron      76.0000001 magnetization 
 augmentation part       -1.9507568 magnetization 

 Broyden mixing:
  rms(total) = 0.13616E-01    rms(broyden)= 0.13598E-01
  rms(prec ) = 0.18399E-01
  weight for this iteration     100.00

 eigenvalues of (default mixing * dielectric matrix)
  average eigenvalue GAMMA=   1.6151
  2.5509  1.9915  1.9915  1.1439  1.1439  0.8688

 Free energy of the ion-electron system (eV)
  ---------------------------------------------------
  alpha Z        PSCENC =        59.19887464
  Ewald energy   TEWEN  =     -2036.33283089
  -Hartree energ DENC   =     -1255.49567542
  -exchange      EXHF   =         0.00000000
  -V(xc)+E(xc)   XCENC  =       186.94942350
  PAW double counting   =      8726.41508960    -8776.08794333
  entropy T*S    EENTRO =         0.00000000
  eigenvalues    EBANDS =      -736.52294371
  atomic energy  EATOM  =      3769.08782378
  Solvation  Ediel_sol  =         0.00000000
  ---------------------------------------------------
  free energy    TOTEN  =       -62.78818183 eV

  energy without entropy =      -62.78818183  energy(sigma->0) =      -62.78818183


--------------------------------------------------------------------------------------------------------




--------------------------------------- Iteration      1(  12)  ---------------------------------------


    POTLOK:  cpu time    0.0033: real time    0.0033
    SETDIJ:  cpu time    0.0009: real time    0.0009
    EDDIAG:  cpu time    0.0490: real time    0.0490
  RMM-DIIS:  cpu time    0.1064: real time    0.1064
    ORTHCH:  cpu time    0.0077: real time    0.0077
 BZINTS: Fermi energy:  3.095069; 76.000000 electrons
         Band energy:-736.068826;  BLOECHL correction:  0.000000
       DOS:  cpu time    0.0008: real time    0.0008
    CHARGE:  cpu time    0.0143: real time    0.0143
    MIXING:  cpu time    0.0004: real time    0.0004
    --------------------------------------------
      LOOP:  cpu time    0.1829: real time    0.1829

 eigenvalue-minimisations  :  1258
 total energy-change (2. order) :-0.6224977E-03  (-0.8714675E-03)
 number of electron      76.0000001 magnetization 
 augmentation part       -1.9526914 magnetization 

 Broyden mixing:
  rms(total) = 0.54349E-02    rms(broyden)= 0.53816E-02
  rms(prec ) = 0.69966E-02
  weight for this iteration     100.00

 eigenvalues of (default mixing * dielectric matrix)
  average eigenvalue GAMMA=   1.6611
  3.1337  2.2889  1.5153  1.5153  1.3330  0.9207  0.9207

 Free energy of the ion-electron system (eV)
  ---------------------------------------------------
  alpha Z        PSCENC =        59.19887464
  Ewald energy   TEWEN  =     -2036.33283089
  -Hartree energ DENC   =     -1255.97030303
  -exchange      EXHF   =         0.00000000
  -V(xc)+E(xc)   XCENC  =       186.97201699
  PAW double counting   =      8712.59589277    -8762.27145293
  entropy T*S    EENTRO =         0.00000000
  eigenvalues    EBANDS =      -736.06882565
  atomic energy  EATOM  =      3769.08782378
  Solvation  Ediel_sol  =         0.00000000
  ---------------------------------------------------
  free energy    TOTEN  =       -62.78880433 eV

  energy without entropy =      -62.78880433  energy(sigma->0) =      -62.78880433


--------------------------------------------------------------------------------------------------------




--------------------------------------- Iteration      1(  13)  ---------------------------------------


    POTLOK:  cpu time    0.0031: real time    0.0034
    SETDIJ:  cpu time    0.0009: real time    0.0009
    EDDIAG:  cpu time    0.0489: real time    0.0489
  RMM-DIIS:  cpu time    0.1035: real time    0.1036
    ORTHCH:  cpu time    0.0072: real time    0.0072
 BZINTS: Fermi energy:  3.090047; 76.000000 electrons
         Band energy:-735.986927;  BLOECHL correction:  0.000000
       DOS:  cpu time    0.0008: real time    0.0008
    CHARGE:  cpu time    0.0142: real time    0.0142
    MIXING:  cpu time    0.0004: real time    0.0004
    --------------------------------------------
      LOOP:  cpu time    0.1790: real time    0.1794

 eigenvalue-minimisations  :  1261
 total energy-change (2. order) :-0.4489483E-03  (-0.3883314E-03)
 number of electron      76.0000001 magnetization 
 augmentation part       -1.9548039 magnetization 

 Broyden mixing:
  rms(total) = 0.25283E-02    rms(broyden)= 0.24936E-02
  rms(prec ) = 0.32873E-02
  weight for this iteration     100.00

 eigenvalues of (default mixing * dielectric matrix)
  average eigenvalue GAMMA=   1.7655
  3.3327  2.4933  2.4933  1.4540  1.4540  0.9766  0.9601  0.9601

 Free energy of the ion-electron system (eV)
  ---------------------------------------------------
  alpha Z        PSCENC =        59.19887464
  Ewald energy   TEWEN  =     -2036.33283089
  -Hartree energ DENC   =     -1256.08353885
  -exchange      EXHF   =         0.00000000
  -V(xc)+E(xc)   XCENC  =       186.97712916
  PAW double counting   =      8701.20491285    -8750.85469681
  entropy T*S    EENTRO =         0.00000000
  eigenvalues    EBANDS =      -735.98692716
  atomic energy  EATOM  =      3769.08782378
  Solvation  Ediel_sol  =         0.00000000
  ---------------------------------------------------
  free energy    TOTEN  =       -62.78925328 eV

  energy without entropy =      -62.78925328  energy(sigma->0) =      -62.78925328


--------------------------------------------------------------------------------------------------------




--------------------------------------- Iteration      1(  14)  ---------------------------------------


    POTLOK:  cpu time    0.0031: real time    0.0034
    SETDIJ:  cpu time    0.0008: real time    0.0008
    EDDIAG:  cpu time    0.0494: real time    0.0494
  RMM-DIIS:  cpu time    0.1045: real time    0.1045
    ORTHCH:  cpu time    0.0072: real time    0.0072
 BZINTS: Fermi energy:  3.085520; 76.000000 electrons
         Band energy:-735.866737;  BLOECHL correction:  0.000000
       DOS:  cpu time    0.0008: real time    0.0008
    CHARGE:  cpu time    0.0142: real time    0.0142
    MIXING:  cpu time    0.0004: real time    0.0004
    --------------------------------------------
      LOOP:  cpu time    0.1805: real time    0.1808

 eigenvalue-minimisations  :  1260
 total energy-change (2. order) :-0.2747439E-03  (-0.2804167E-03)
 number of electron      76.0000001 magnetization 
 augmentation part       -1.9558293 magnetization 

 Broyden mixing:
  rms(total) = 0.13252E-02    rms(broyden)= 0.12778E-02
  rms(prec ) = 0.20422E-02
  weight for this iteration     100.00

 eigenvalues of (default mixing * dielectric matrix)
  average eigenvalue GAMMA=   1.7418
  3.8291  2.7422  2.4061  1.4234  1.4234  1.1223  1.0037  1.0037  0.7220

 Free energy of the ion-electron system (eV)
  ---------------------------------------------------
  alpha Z        PSCENC =        59.19887464
  Ewald energy   TEWEN  =     -2036.33283089
  -Hartree energ DENC   =     -1256.22779316
  -exchange      EXHF   =         0.00000000
  -V(xc)+E(xc)   XCENC  =       186.98606084
  PAW double counting   =      8704.48541094    -8754.12033751
  entropy T*S    EENTRO =         0.00000000
  eigenvalues    EBANDS =      -735.86673666
  atomic energy  EATOM  =      3769.08782378
  Solvation  Ediel_sol  =         0.00000000
  ---------------------------------------------------
  free energy    TOTEN  =       -62.78952802 eV

  energy without entropy =      -62.78952802  energy(sigma->0) =      -62.78952802


--------------------------------------------------------------------------------------------------------




--------------------------------------- Iteration      1(  15)  ---------------------------------------


    POTLOK:  cpu time    0.0031: real time    0.0034
    SETDIJ:  cpu time    0.0008: real time    0.0008
    EDDIAG:  cpu time    0.0499: real time    0.0499
  RMM-DIIS:  cpu time    0.0839: real time    0.0839
    ORTHCH:  cpu time    0.0072: real time    0.0072
 BZINTS: Fermi energy:  3.080407; 76.000000 electrons
         Band energy:-735.887953;  BLOECHL correction:  0.000000
       DOS:  cpu time    0.0008: real time    0.0008
    CHARGE:  cpu time    0.0142: real time    0.0142
    MIXING:  cpu time    0.0005: real time    0.0005
    --------------------------------------------
      LOOP:  cpu time    0.1604: real time    0.1607

 eigenvalue-minimisations  :   952
 total energy-change (2. order) :-0.1327377E-03  (-0.1396215E-03)
 number of electron      76.0000001 magnetization 
 augmentation part       -1.9567894 magnetization 

 Broyden mixing:
  rms(total) = 0.11977E-02    rms(broyden)= 0.11787E-02
  rms(prec ) = 0.15509E-02
  weight for this iteration     100.00

 eigenvalues of (default mixing * dielectric matrix)
  average eigenvalue GAMMA=   1.6997
  4.1734  2.8118  2.4455  1.5061  1.5061  1.0651  1.0651  1.0700  0.6772  0.6772

 Free energy of the ion-electron system (eV)
  ---------------------------------------------------
  alpha Z        PSCENC =        59.19887464
  Ewald energy   TEWEN  =     -2036.33283089
  -Hartree energ DENC   =     -1256.21528572
  -exchange      EXHF   =         0.00000000
  -V(xc)+E(xc)   XCENC  =       186.98599385
  PAW double counting   =      8704.59542380    -8754.22170726
  entropy T*S    EENTRO =         0.00000000
  eigenvalues    EBANDS =      -735.88795296
  atomic energy  EATOM  =      3769.08782378
  Solvation  Ediel_sol  =         0.00000000
  ---------------------------------------------------
  free energy    TOTEN  =       -62.78966076 eV

  energy without entropy =      -62.78966076  energy(sigma->0) =      -62.78966076


--------------------------------------------------------------------------------------------------------




--------------------------------------- Iteration      1(  16)  ---------------------------------------


    POTLOK:  cpu time    0.0035: real time    0.0038
    SETDIJ:  cpu time    0.0008: real time    0.0008
    EDDIAG:  cpu time    0.0488: real time    0.0488
  RMM-DIIS:  cpu time    0.0911: real time    0.0911
    ORTHCH:  cpu time    0.0072: real time    0.0072
 BZINTS: Fermi energy:  3.075834; 76.000000 electrons
         Band energy:-735.884296;  BLOECHL correction:  0.000000
       DOS:  cpu time    0.0008: real time    0.0008
    CHARGE:  cpu time    0.0142: real time    0.0142
    MIXING:  cpu time    0.0005: real time    0.0005
    --------------------------------------------
      LOOP:  cpu time    0.1669: real time    0.1673

 eigenvalue-minimisations  :  1041
 total energy-change (2. order) :-0.9554543E-04  (-0.9995821E-04)
 number of electron      76.0000001 magnetization 
 augmentation part       -1.9574670 magnetization 

 Broyden mixing:
  rms(total) = 0.10044E-02    rms(broyden)= 0.99270E-03
  rms(prec ) = 0.14487E-02
  weight for this iteration     100.00

 eigenvalues of (default mixing * dielectric matrix)
  average eigenvalue GAMMA=   1.6607
  4.4777  2.9124  2.4207  1.5606  1.5606  1.0672  1.0672  1.0405  0.8151  0.8151
  0.5303

 Free energy of the ion-electron system (eV)
  ---------------------------------------------------
  alpha Z        PSCENC =        59.19887464
  Ewald energy   TEWEN  =     -2036.33283089
  -Hartree energ DENC   =     -1256.22380795
  -exchange      EXHF   =         0.00000000
  -V(xc)+E(xc)   XCENC  =       186.98707466
  PAW double counting   =      8705.59484286    -8755.21743705
  entropy T*S    EENTRO =         0.00000000
  eigenvalues    EBANDS =      -735.88429635
  atomic energy  EATOM  =      3769.08782378
  Solvation  Ediel_sol  =         0.00000000
  ---------------------------------------------------
  free energy    TOTEN  =       -62.78975631 eV

  energy without entropy =      -62.78975631  energy(sigma->0) =      -62.78975631


--------------------------------------------------------------------------------------------------------




--------------------------------------- Iteration      1(  17)  ---------------------------------------


    POTLOK:  cpu time    0.0031: real time    0.0034
    SETDIJ:  cpu time    0.0008: real time    0.0008
    EDDIAG:  cpu time    0.0496: real time    0.0496
  RMM-DIIS:  cpu time    0.0909: real time    0.0909
    ORTHCH:  cpu time    0.0072: real time    0.0073
 BZINTS: Fermi energy:  3.071660; 76.000000 electrons
         Band energy:-735.891144;  BLOECHL correction:  0.000000
       DOS:  cpu time    0.0008: real time    0.0008
    CHARGE:  cpu time    0.0146: real time    0.0146
    MIXING:  cpu time    0.0005: real time    0.0005
    --------------------------------------------
      LOOP:  cpu time    0.1676: real time    0.1679

 eigenvalue-minimisations  :  1038
 total energy-change (2. order) :-0.5676872E-04  (-0.6099861E-04)
 number of electron      76.0000001 magnetization 
 augmentation part       -1.9580054 magnetization 

 Broyden mixing:
  rms(total) = 0.86018E-03    rms(broyden)= 0.85309E-03
  rms(prec ) = 0.11674E-02
  weight for this iteration     100.00

 eigenvalues of (default mixing * dielectric matrix)
  average eigenvalue GAMMA=   1.6642
  4.8835  2.9864  2.4612  1.6341  1.6341  1.0365  1.0336  1.0336  1.0582  1.0582
  0.5755  0.5755

 Free energy of the ion-electron system (eV)
  ---------------------------------------------------
  alpha Z        PSCENC =        59.19887464
  Ewald energy   TEWEN  =     -2036.33283089
  -Hartree energ DENC   =     -1256.22151046
  -exchange      EXHF   =         0.00000000
  -V(xc)+E(xc)   XCENC  =       186.98761709
  PAW double counting   =      8705.47045141    -8755.08909449
  entropy T*S    EENTRO =         0.00000000
  eigenvalues    EBANDS =      -735.89114415
  atomic energy  EATOM  =      3769.08782378
  Solvation  Ediel_sol  =         0.00000000
  ---------------------------------------------------
  free energy    TOTEN  =       -62.78981307 eV

  energy without entropy =      -62.78981307  energy(sigma->0) =      -62.78981307


--------------------------------------------------------------------------------------------------------




--------------------------------------- Iteration      1(  18)  ---------------------------------------


    POTLOK:  cpu time    0.0030: real time    0.0033
    SETDIJ:  cpu time    0.0009: real time    0.0009
    EDDIAG:  cpu time    0.0488: real time    0.0488
  RMM-DIIS:  cpu time    0.0814: real time    0.0814
    ORTHCH:  cpu time    0.0072: real time    0.0072
 BZINTS: Fermi energy:  3.068233; 76.000000 electrons
         Band energy:-735.888588;  BLOECHL correction:  0.000000
       DOS:  cpu time    0.0008: real time    0.0008
    CHARGE:  cpu time    0.0143: real time    0.0143
    MIXING:  cpu time    0.0005: real time    0.0005
    --------------------------------------------
      LOOP:  cpu time    0.1568: real time    0.1571

 eigenvalue-minimisations  :   925
 total energy-change (2. order) :-0.3941068E-04  (-0.4205868E-04)
 number of electron      76.0000001 magnetization 
 augmentation part       -1.9583397 magnetization 

 Broyden mixing:
  rms(total) = 0.78475E-03    rms(broyden)= 0.78007E-03
  rms(prec ) = 0.11456E-02
  weight for this iteration     100.00

 eigenvalues of (default mixing * dielectric matrix)
  average eigenvalue GAMMA=   1.8587
  6.2375  3.2207  2.6276  2.0523  2.0523  1.3653  1.3653  1.1130  1.1130  0.8615
  0.8340  0.8340  0.4862

 Free energy of the ion-electron system (eV)
  ---------------------------------------------------
  alpha Z        PSCENC =        59.19887464
  Ewald energy   TEWEN  =     -2036.33283089
  -Hartree energ DENC   =     -1256.22764404
  -exchange      EXHF   =         0.00000000
  -V(xc)+E(xc)   XCENC  =       186.98862827
  PAW double counting   =      8705.69908656    -8755.31520299
  entropy T*S    EENTRO =         0.00000000
  eigenvalues    EBANDS =      -735.88858781
  atomic energy  EATOM  =      3769.08782378
  Solvation  Ediel_sol  =         0.00000000
  ---------------------------------------------------
  free energy    TOTEN  =       -62.78985248 eV

  energy without entropy =      -62.78985248  energy(sigma->0) =      -62.78985248


--------------------------------------------------------------------------------------------------------




--------------------------------------- Iteration      1(  19)  ---------------------------------------


    POTLOK:  cpu time    0.0031: real time    0.0034
    SETDIJ:  cpu time    0.0008: real time    0.0008
    EDDIAG:  cpu time    0.0496: real time    0.0496
  RMM-DIIS:  cpu time    0.0818: real time    0.0818
    ORTHCH:  cpu time    0.0072: real time    0.0072
 BZINTS: Fermi energy:  3.065416; 76.000000 electrons
         Band energy:-735.909288;  BLOECHL correction:  0.000000
       DOS:  cpu time    0.0008: real time    0.0008
    CHARGE:  cpu time    0.0146: real time    0.0146
    MIXING:  cpu time    0.0005: real time    0.0005
    --------------------------------------------
      LOOP:  cpu time    0.1584: real time    0.1587

 eigenvalue-minimisations  :   912
 total energy-change (2. order) :-0.2157363E-04  (-0.2531054E-04)
 number of electron      76.0000001 magnetization 
 augmentation part       -1.9584745 magnetization 

 Broyden mixing:
  rms(total) = 0.43206E-03    rms(broyden)= 0.43050E-03
  rms(prec ) = 0.50432E-03
  weight for this iteration     100.00

 eigenvalues of (default mixing * dielectric matrix)
  average eigenvalue GAMMA=   1.6897
  4.5610  3.7280  2.3678  2.3678  1.6776  1.6776  1.2107  1.2107  0.9546  0.9546
  0.9034  0.9034  0.6606  0.4784

 Free energy of the ion-electron system (eV)
  ---------------------------------------------------
  alpha Z        PSCENC =        59.19887464
  Ewald energy   TEWEN  =     -2036.33283089
  -Hartree energ DENC   =     -1256.21756185
  -exchange      EXHF   =         0.00000000
  -V(xc)+E(xc)   XCENC  =       186.99011280
  PAW double counting   =      8705.71658328    -8755.32358758
  entropy T*S    EENTRO =         0.00000000
  eigenvalues    EBANDS =      -735.90928825
  atomic energy  EATOM  =      3769.08782378
  Solvation  Ediel_sol  =         0.00000000
  ---------------------------------------------------
  free energy    TOTEN  =       -62.78987406 eV

  energy without entropy =      -62.78987406  energy(sigma->0) =      -62.78987406


--------------------------------------------------------------------------------------------------------




--------------------------------------- Iteration      1(  20)  ---------------------------------------


    POTLOK:  cpu time    0.0031: real time    0.0034
    SETDIJ:  cpu time    0.0009: real time    0.0009
    EDDIAG:  cpu time    0.0487: real time    0.0487
  RMM-DIIS:  cpu time    0.0838: real time    0.0838
    ORTHCH:  cpu time    0.0072: real time    0.0072
 BZINTS: Fermi energy:  3.063277; 76.000000 electrons
         Band energy:-735.917634;  BLOECHL correction:  0.000000
       DOS:  cpu time    0.0008: real time    0.0008
    CHARGE:  cpu time    0.0144: real time    0.0144
    MIXING:  cpu time    0.0006: real time    0.0006
    --------------------------------------------
      LOOP:  cpu time    0.1595: real time    0.1598

 eigenvalue-minimisations  :   917
 total energy-change (2. order) :-0.1719838E-04  (-0.2037236E-04)
 number of electron      76.0000001 magnetization 
 augmentation part       -1.9586650 magnetization 

 Broyden mixing:
  rms(total) = 0.17059E-03    rms(broyden)= 0.16602E-03
  rms(prec ) = 0.20756E-03
  weight for this iteration     100.00

 eigenvalues of (default mixing * dielectric matrix)
  average eigenvalue GAMMA=   1.5776
  4.5331  3.7322  2.3654  2.3654  1.6763  1.6763  1.2123  1.2123  0.9547  0.9547
  0.9041  0.9041  0.6614  0.4785  0.0328

 Free energy of the ion-electron system (eV)
  ---------------------------------------------------
  alpha Z        PSCENC =        59.19887464
  Ewald energy   TEWEN  =     -2036.33283089
  -Hartree energ DENC   =     -1256.20597172
  -exchange      EXHF   =         0.00000000
  -V(xc)+E(xc)   XCENC  =       186.98904925
  PAW double counting   =      8705.05341470    -8754.66261702
  entropy T*S    EENTRO =         0.00000000
  eigenvalues    EBANDS =      -735.91763400
  atomic energy  EATOM  =      3769.08782378
  Solvation  Ediel_sol  =         0.00000000
  ---------------------------------------------------
  free energy    TOTEN  =       -62.78989126 eV

  energy without entropy =      -62.78989126  energy(sigma->0) =      -62.78989126


--------------------------------------------------------------------------------------------------------




--------------------------------------- Iteration      1(  21)  ---------------------------------------


    POTLOK:  cpu time    0.0031: real time    0.0034
    SETDIJ:  cpu time    0.0009: real time    0.0009
    EDDIAG:  cpu time    0.0493: real time    0.0493
  RMM-DIIS:  cpu time    0.0816: real time    0.0816
    ORTHCH:  cpu time    0.0072: real time    0.0072
 BZINTS: Fermi energy:  3.061696; 76.000000 electrons
         Band energy:-735.917257;  BLOECHL correction:  0.000000
       DOS:  cpu time    0.0008: real time    0.0008
    --------------------------------------------
      LOOP:  cpu time    0.1428: real time    0.1431

 eigenvalue-minimisations  :   891
 total energy-change (2. order) :-0.1183776E-04  (-0.1494491E-04)
 number of electron      76.0000001 magnetization 
 augmentation part       -1.9586650 magnetization 

 Free energy of the ion-electron system (eV)
  ---------------------------------------------------
  alpha Z        PSCENC =        59.19887464
  Ewald energy   TEWEN  =     -2036.33283089
  -Hartree energ DENC   =     -1256.20612483
  -exchange      EXHF   =         0.00000000
  -V(xc)+E(xc)   XCENC  =       186.98902068
  PAW double counting   =      8705.06467833    -8754.67408791
  entropy T*S    EENTRO =         0.00000000
  eigenvalues    EBANDS =      -735.91725689
  atomic energy  EATOM  =      3769.08782378
  Solvation  Ediel_sol  =         0.00000000
  ---------------------------------------------------
  free energy    TOTEN  =       -62.78990309 eV

  energy without entropy =      -62.78990309  energy(sigma->0) =      -62.78990309


--------------------------------------------------------------------------------------------------------




 average (electrostatic) potential at core
  the test charge radii are     0.9587  0.9698  0.7079
  (the norm of the test charge is              1.0000)
       1 -88.3433       2 -88.3433       3 -88.5779       4 -88.5779       5 -88.5779
       6 -88.5779       7 -88.9378       8 -88.9378       9 -88.9574      10 -88.9574
      11 -68.8903      12 -68.8903      13 -65.5122      14 -65.5122      15 -65.5122
      16 -65.5122
 
 
 
 E-fermi :   3.0617     XC(G=0):  -8.1933     alpha+bet : -9.0605


 k-point     1 :       0.0000    0.0000    0.0000
  band No.  band energies     occupation 
      1     -45.9976      2.00000
      2     -45.9976      2.00000
      3     -42.7138      2.00000
      4     -42.7138      2.00000
      5     -42.7137      2.00000
      6     -42.7136      2.00000
      7     -13.8360      2.00000
      8     -13.1010      2.00000
      9     -11.1116      2.00000
     10     -10.3095      2.00000
     11     -10.2735      2.00000
     12     -10.2296      2.00000
     13      -9.5752      2.00000
     14      -9.3337      2.00000
     15      -6.1845      2.00000
     16      -5.3109      2.00000
     17      -4.6075      2.00000
     18      -3.7902      2.00000
     19      -3.2279      2.00000
     20      -2.5549      2.00000
     21      -2.3627      2.00000
     22      -1.9398      2.00000
     23      -1.3347      2.00000
     24      -0.8597      2.00000
     25      -0.2898      2.00000
     26      -0.0309      2.00000
     27       0.0004      2.00000
     28       0.0908      2.00000
     29       0.2530      2.00000
     30       1.0372      2.00000
     31       1.1024      2.00000
     32       1.1086      2.00000
     33       1.1475      2.00000
     34       1.3557      2.00000
     35       2.0427      2.00000
     36       2.4272      2.00000
     37       2.6132      2.00000
     38       3.0550      2.00000
     39       3.4737      0.00000
     40       3.9615      0.00000
     41       4.0621      0.00000
     42       4.2553      0.00000
     43       5.1005      0.00000
     44       5.3737      0.00000
     45       5.4325      0.00000
     46       5.9842      0.00000
     47       6.5718      0.00000
     48       6.6663      0.00000

 k-point     2 :       0.3333    0.0000    0.0000
  band No.  band energies     occupation 
      1     -45.9975      2.00000
      2     -45.9975      2.00000
      3     -42.7146      2.00000
      4     -42.7146      2.00000
      5     -42.7127      2.00000
      6     -42.7127      2.00000
      7     -13.6869      2.00000
      8     -13.3290      2.00000
      9     -10.9130      2.00000
     10     -10.4529      2.00000
     11     -10.2038      2.00000
     12     -10.0462      2.00000
     13      -9.8985      2.00000
     14      -9.3138      2.00000
     15      -6.0255      2.00000
     16      -5.5240      2.00000
     17      -3.8631      2.00000
     18      -3.5363      2.00000
     19      -3.0969      2.00000
     20      -2.8779      2.00000
     21      -2.7495      2.00000
     22      -2.4412      2.00000
     23      -1.3130      2.00000
     24      -1.2220      2.00000
     25      -0.6495      2.00000
     26      -0.1983      2.00000
     27       0.0038      2.00000
     28       0.1471      2.00000
     29       0.7894      2.00000
     30       0.9016      2.00000
     31       1.1156      2.00000
     32       1.3854      2.00000
     33       1.5044      2.00000
     34       1.7539      2.00000
     35       1.8335      2.00000
     36       2.1096      2.00000
     37       2.4484      2.00000
     38       2.7431      2.00000
     39       3.8598      0.00000
     40       3.8917      0.00000
     41       4.5086      0.00000
     42       4.8785      0.00000
     43       4.9679      0.00000
     44       5.3733      0.00000
     45       5.6047      0.00000
     46       5.9201      0.00000
     47       6.2686      0.00000
     48       6.7097      0.00000

 k-point     3 :       0.0000    0.3333    0.0000
  band No.  band energies     occupation 
      1     -45.9975      2.00000
      2     -45.9975      2.00000
      3     -42.7137      2.00000
      4     -42.7136      2.00000
      5     -42.7136      2.00000
      6     -42.7136      2.00000
      7     -13.8278      2.00000
      8     -13.0903      2.00000
      9     -11.1119      2.00000
     10     -10.3779      2.00000
     11     -10.2836      2.00000
     12     -10.2728      2.00000
     13      -9.5752      2.00000
     14      -9.2863      2.00000
     15      -6.1367      2.00000
     16      -5.0801      2.00000
     17      -4.6004      2.00000
     18      -3.5232      2.00000
     19      -3.3680      2.00000
     20      -2.7656      2.00000
     21      -2.3418      2.00000
     22      -1.9434      2.00000
     23      -1.4368      2.00000
     24      -0.8086      2.00000
     25      -0.3705      2.00000
     26      -0.3397      2.00000
     27       0.0816      2.00000
     28       0.1008      2.00000
     29       0.2268      2.00000
     30       0.6549      2.00000
     31       0.9846      2.00000
     32       1.1412      2.00000
     33       1.1629      2.00000
     34       1.1945      2.00000
     35       2.2356      2.00000
     36       2.3770      2.00000
     37       2.6276      2.00000
     38       2.8616      2.00000
     39       3.9983      0.00000
     40       4.3546      0.00000
     41       4.4010      0.00000
     42       4.5838      0.00000
     43       5.1731      0.00000
     44       5.4134      0.00000
     45       5.5715      0.00000
     46       5.9292      0.00000
     47       6.0394      0.00000
     48       6.5594      0.00000

 k-point     4 :       0.3333    0.3333    0.0000
  band No.  band energies     occupation 
      1     -45.9975      2.00000
      2     -45.9975      2.00000
      3     -42.7146      2.00000
      4     -42.7146      2.00000
      5     -42.7127      2.00000
      6     -42.7126      2.00000
      7     -13.6785      2.00000
      8     -13.3195      2.00000
      9     -10.9194      2.00000
     10     -10.5000      2.00000
     11     -10.2516      2.00000
     12     -10.0527      2.00000
     13      -9.8930      2.00000
     14      -9.2943      2.00000
     15      -5.9317      2.00000
     16      -5.3338      2.00000
     17      -3.8515      2.00000
     18      -3.3636      2.00000
     19      -3.2402      2.00000
     20      -2.9747      2.00000
     21      -2.6674      2.00000
     22      -2.4384      2.00000
     23      -1.3467      2.00000
     24      -1.3211      2.00000
     25      -0.7718      2.00000
     26      -0.3339      2.00000
     27      -0.2064      2.00000
     28      -0.1192      2.00000
     29       0.8410      2.00000
     30       0.9944      2.00000
     31       1.1892      2.00000
     32       1.4359      2.00000
     33       1.4846      2.00000
     34       1.6003      2.00000
     35       1.8660      2.00000
     36       2.2359      2.00000
     37       2.4531      2.00000
     38       2.6378      2.00000
     39       3.9168      0.00000
     40       3.9451      0.00000
     41       4.8069      0.00000
     42       5.0295      0.00000
     43       5.2200      0.00000
     44       5.3136      0.00000
     45       5.6931      0.00000
     46       6.0418      0.00000
     47       6.3185      0.00000
     48       6.4520      0.00000

 k-point     5 :       0.0000    0.0000    0.3333
  band No.  band energies     occupation 
      1     -45.9975      2.00000
      2     -45.9975      2.00000
      3     -42.7137      2.00000
      4     -42.7137      2.00000
      5     -42.7137      2.00000
      6     -42.7136      2.00000
      7     -13.6945      2.00000
      8     -13.3427      2.00000
      9     -10.7460      2.00000
     10     -10.3622      2.00000
     11     -10.1715      2.00000
     12     -10.1254      2.00000
     13      -9.7817      2.00000
     14      -9.7419      2.00000
     15      -5.8423      2.00000
     16      -5.4308      2.00000
     17      -4.0616      2.00000
     18      -3.5239      2.00000
     19      -3.0769      2.00000
     20      -2.8771      2.00000
     21      -2.8242      2.00000
     22      -2.6652      2.00000
     23      -1.1766      2.00000
     24      -0.7459      2.00000
     25      -0.7395      2.00000
     26      -0.0596      2.00000
     27       0.1430      2.00000
     28       0.3639      2.00000
     29       0.5612      2.00000
     30       0.8244      2.00000
     31       1.0327      2.00000
     32       1.3904      2.00000
     33       1.5776      2.00000
     34       1.6658      2.00000
     35       1.7008      2.00000
     36       2.1867      2.00000
     37       2.2373      2.00000
     38       2.5895      2.00000
     39       3.8398      0.00000
     40       3.9916      0.00000
     41       4.4918      0.00000
     42       4.8840      0.00000
     43       4.9152      0.00000
     44       5.2899      0.00000
     45       5.6146      0.00000
     46       5.6420      0.00000
     47       6.1909      0.00000
     48       6.7050      0.00000

 k-point     6 :       0.3333    0.0000    0.3333
  band No.  band energies     occupation 
      1     -45.9975      2.00000
      2     -45.9975      2.00000
      3     -42.7146      2.00000
      4     -42.7146      2.00000
      5     -42.7127      2.00000
      6     -42.7127      2.00000
      7     -13.5996      2.00000
      8     -13.4196      2.00000
      9     -10.8760      2.00000
     10     -10.6260      2.00000
     11     -10.2238      2.00000
     12     -10.1767      2.00000
     13      -9.5886      2.00000
     14      -9.2638      2.00000
     15      -5.9992      2.00000
     16      -5.7007      2.00000
     17      -3.9868      2.00000
     18      -3.6160      2.00000
     19      -3.0693      2.00000
     20      -2.8922      2.00000
     21      -2.7168      2.00000
     22      -1.9361      2.00000
     23      -1.0901      2.00000
     24      -1.0550      2.00000
     25      -0.5675      2.00000
     26      -0.1350      2.00000
     27      -0.1217      2.00000
     28       0.0842      2.00000
     29       0.4061      2.00000
     30       0.5765      2.00000
     31       1.1832      2.00000
     32       1.2171      2.00000
     33       1.3810      2.00000
     34       1.6110      2.00000
     35       1.9401      2.00000
     36       2.0537      2.00000
     37       2.4666      2.00000
     38       2.8562      2.00000
     39       3.4911      0.00000
     40       3.7223      0.00000
     41       4.5769      0.00000
     42       4.7236      0.00000
     43       5.1872      0.00000
     44       5.2854      0.00000
     45       5.9694      0.00000
     46       6.1308      0.00000
     47       6.7107      0.00000
     48       7.1784      0.00000

 k-point     7 :       0.0000    0.3333    0.3333
  band No.  band energies     occupation 
      1     -45.9975      2.00000
      2     -45.9975      2.00000
      3     -42.7137      2.00000
      4     -42.7137      2.00000
      5     -42.7136      2.00000
      6     -42.7136      2.00000
      7     -13.6863      2.00000
      8     -13.3333      2.00000
      9     -10.7594      2.00000
     10     -10.4268      2.00000
     11     -10.2073      2.00000
     12     -10.1249      2.00000
     13      -9.7815      2.00000
     14      -9.7122      2.00000
     15      -5.7343      2.00000
     16      -5.2278      2.00000
     17      -4.0551      2.00000
     18      -3.3823      2.00000
     19      -3.2081      2.00000
     20      -2.9464      2.00000
     21      -2.8189      2.00000
     22      -2.6420      2.00000
     23      -1.2730      2.00000
     24      -0.8185      2.00000
     25      -0.7814      2.00000
     26      -0.4356      2.00000
     27      -0.0505      2.00000
     28       0.3547      2.00000
     29       0.6856      2.00000
     30       0.9489      2.00000
     31       1.0476      2.00000
     32       1.2946      2.00000
     33       1.3960      2.00000
     34       1.6266      2.00000
     35       1.9011      2.00000
     36       2.1146      2.00000
     37       2.2108      2.00000
     38       2.5350      2.00000
     39       3.8909      0.00000
     40       4.0707      0.00000
     41       4.6685      0.00000
     42       5.0384      0.00000
     43       5.1219      0.00000
     44       5.3084      0.00000
     45       5.7086      0.00000
     46       5.9304      0.00000
     47       6.5583      0.00000
     48       6.6903      0.00000

 k-point     8 :       0.3333    0.3333    0.3333
  band No.  band energies     occupation 
      1     -45.9975      2.00000
      2     -45.9975      2.00000
      3     -42.7146      2.00000
      4     -42.7146      2.00000
      5     -42.7127      2.00000
      6     -42.7126      2.00000
      7     -13.5910      2.00000
      8     -13.4104      2.00000
      9     -10.8821      2.00000
     10     -10.6461      2.00000
     11     -10.2746      2.00000
     12     -10.2128      2.00000
     13      -9.5765      2.00000
     14      -9.2440      2.00000
     15      -5.9107      2.00000
     16      -5.5583      2.00000
     17      -3.8286      2.00000
     18      -3.5090      2.00000
     19      -3.1959      2.00000
     20      -3.0490      2.00000
     21      -2.6357      2.00000
     22      -1.9127      2.00000
     23      -1.2260      2.00000
     24      -1.1526      2.00000
     25      -0.6226      2.00000
     26      -0.3414      2.00000
     27      -0.1606      2.00000
     28      -0.0117      2.00000
     29       0.3727      2.00000
     30       0.6059      2.00000
     31       0.9345      2.00000
     32       1.2250      2.00000
     33       1.4519      2.00000
     34       1.5427      2.00000
     35       1.9832      2.00000
     36       2.1395      2.00000
     37       2.4183      2.00000
     38       2.7155      2.00000
     39       3.6828      0.00000
     40       3.8964      0.00000
     41       4.8647      0.00000
     42       5.0561      0.00000
     43       5.2919      0.00000
     44       5.4109      0.00000
     45       5.7833      0.00000
     46       5.9325      0.00000
     47       6.4667      0.00000
     48       6.8778      0.00000


--------------------------------------------------------------------------------------------------------


 soft charge-density along one line, spin component           1
         0         1         2         3         4         5         6         7         8         9
 total charge-density along one line
 
 pseudopotential strength for first ion, spin component:           1
 30.084  37.536  -0.002   0.022  -0.000  -0.002   0.035  -0.000
 37.536  46.837  -0.002   0.028  -0.000  -0.003   0.043  -0.000
 -0.002  -0.002   6.601   0.000  -0.000  10.221   0.000  -0.000
  0.022   0.028   0.000   6.598  -0.000   0.000  10.216  -0.000
 -0.000  -0.000  -0.000  -0.000   6.598  -0.000  -0.000  10.216
 -0.002  -0.003  10.221   0.000  -0.000  15.846   0.001  -0.000
  0.035   0.043   0.000  10.216  -0.000   0.001  15.839  -0.000
 -0.000  -0.000  -0.000  -0.000  10.216  -0.000  -0.000  15.838
 total augmentation occupancy for first ion, spin component:           1
 13.815  -8.488   0.263   0.340   0.000  -0.119  -0.065   0.000
 -8.488   5.783  -0.199  -0.310   0.000   0.083   0.055   0.000
  0.263  -0.199   4.907   0.010   0.000  -1.745  -0.002   0.000
  0.340  -0.310   0.010   4.866   0.000  -0.001  -1.692   0.000
  0.000   0.000   0.000   0.000   4.949   0.000   0.000  -1.710
 -0.119   0.083  -1.745  -0.001   0.000   0.656   0.001   0.000
 -0.065   0.055  -0.002  -1.692   0.000   0.001   0.637   0.000
  0.000   0.000   0.000   0.000  -1.710   0.000   0.000   0.654


------------------------ aborting loop because EDIFF is reached ----------------------------------------


    CHARGE:  cpu time    0.0154: real time    0.0154
    FORLOC:  cpu time    0.0009: real time    0.0009
    FORNL :  cpu time    0.0330: real time    0.0330
    STRESS:  cpu time    0.1007: real time    0.1028
    FORCOR:  cpu time    0.0029: real time    0.0030
    FORHAR:  cpu time    0.0026: real time    0.0026
    MIXING:  cpu time    0.0005: real time    0.0005
    OFIELD:  cpu time    0.0001: real time    0.0002

  FORCE on cell =-STRESS in cart. coord.  units (eV):
  Direction    XX          YY          ZZ          XY          YZ          ZX
  --------------------------------------------------------------------------------------
  Alpha Z    59.19887    59.19887    59.19887
  Ewald    -210.38117 -1416.20409  -409.75392    -0.00000    -0.00000    -0.00000
  Hartree   759.25851  -174.48452   671.43335    -0.00000     0.00000     0.00000
  E(xc)    -279.13967  -278.90144  -279.02762     0.00000     0.00000     0.00000
  Local   -1885.28317   256.28249 -1608.87691     0.00000     0.00000     0.00000
  n-local   605.54360   606.16137   608.80815    -0.07829    -0.10022    -0.18807
  augment   -49.47488   -47.64074   -47.52299    -0.00000     0.00000     0.00000
  Kinetic  1034.37477  1010.27720  1008.38115    -0.25149    -0.06159    -0.29115
  Fock        0.00000     0.00000     0.00000     0.00000     0.00000     0.00000
  -------------------------------------------------------------------------------------
  Total      34.09686    14.68915     2.64008     0.00000     0.00000     0.00000
  in kB     163.88767    70.60385    12.68964     0.00000     0.00000     0.00000
  external pressure =       82.39 kB  Pullay stress =        0.00 kB


 VOLUME and BASIS-vectors are now :
 -----------------------------------------------------------------------------
  energy-cutoff  :      420.00
  volume of cell :      333.33
      direct lattice vectors                 reciprocal lattice vectors
     6.933612744  0.000000000  0.000000000     0.144224957  0.000000000  0.000000000
     0.000000000  6.933612744  0.000000000     0.000000000  0.144224957  0.000000000
     0.000000000  0.000000000  6.933612744     0.000000000  0.000000000  0.144224957

  length of vectors
     6.933612744  6.933612744  6.933612744     0.144224957  0.144224957  0.144224957


 FORCES acting on ions
    electron-ion (+dipol)            ewald-force                    non-local-force                 convergence-correction
 -----------------------------------------------------------------------------------------------
   0.214E-09 0.422E+02 0.287E+02   0.271E-08 -.413E+02 -.332E+02   0.000E+00 -.958E+00 0.276E+01   -.715E-11 0.698E-03 0.925E-03
   -.984E-08 -.422E+02 0.287E+02   -.380E-08 0.413E+02 -.332E+02   0.000E+00 0.958E+00 0.276E+01   0.729E-11 -.698E-03 0.925E-03
   -.232E+02 0.447E+02 0.211E+02   0.240E+02 -.452E+02 -.203E+02   -.216E+01 -.485E+00 0.557E-01   0.215E-02 0.304E-03 -.823E-03
   0.232E+02 -.447E+02 0.211E+02   -.240E+02 0.452E+02 -.203E+02   0.216E+01 0.485E+00 0.557E-01   -.215E-02 -.304E-03 -.823E-03
   -.232E+02 -.447E+02 0.211E+02   0.240E+02 0.452E+02 -.203E+02   -.216E+01 0.485E+00 0.557E-01   0.215E-02 -.304E-03 -.823E-03
   0.232E+02 0.447E+02 0.211E+02   -.240E+02 -.452E+02 -.203E+02   0.216E+01 -.485E+00 0.557E-01   -.215E-02 0.304E-03 -.823E-03
   0.255E-09 -.194E+03 -.557E+02   0.486E-08 0.196E+03 0.563E+02   0.000E+00 0.489E+00 -.396E+00   -.912E-11 0.197E-03 0.109E-02
   -.272E-07 0.194E+03 -.557E+02   -.945E-08 -.196E+03 0.563E+02   0.000E+00 -.489E+00 -.396E+00   0.925E-11 -.197E-03 0.109E-02
   0.212E-09 0.176E+03 -.176E+02   0.314E-08 -.180E+03 0.156E+02   0.000E+00 0.142E+01 0.374E+01   -.890E-11 -.342E-03 0.186E-02
   -.324E-07 -.176E+03 -.176E+02   -.363E-08 0.180E+03 0.156E+02   0.000E+00 -.142E+01 0.374E+01   0.914E-11 0.342E-03 0.186E-02
   0.169E-09 0.626E+02 -.222E+02   0.180E-08 -.629E+02 0.205E+02   0.000E+00 -.128E+01 0.164E+01   -.410E-11 0.485E-04 -.321E-03
   -.211E-07 -.626E+02 -.222E+02   -.328E-08 0.629E+02 0.205E+02   0.000E+00 0.128E+01 0.164E+01   0.585E-11 -.485E-04 -.321E-03
   0.336E+02 -.789E+02 0.886E+01   -.297E+02 0.750E+02 -.932E+01   -.432E+01 0.271E+01 -.558E+00   -.637E-03 -.106E-03 -.445E-04
   -.336E+02 0.789E+02 0.886E+01   0.297E+02 -.750E+02 -.932E+01   0.432E+01 -.271E+01 -.558E+00   0.637E-03 0.106E-03 -.445E-04
   0.336E+02 0.789E+02 0.886E+01   -.297E+02 -.750E+02 -.932E+01   -.432E+01 -.271E+01 -.558E+00   -.637E-03 0.106E-03 -.445E-04
   -.336E+02 -.789E+02 0.886E+01   0.297E+02 0.750E+02 -.932E+01   0.432E+01 0.271E+01 -.558E+00   0.637E-03 -.106E-03 -.445E-04
 -----------------------------------------------------------------------------------------------
   -.141E-06 0.138E-06 -.135E+02   -.107E-13 0.000E+00 0.320E-13   0.000E+00 0.000E+00 0.135E+02   0.220E-11 -.338E-11 0.365E-02
 
 
 POSITION                                       TOTAL-FORCE (eV/Angst)
 -----------------------------------------------------------------------------------
      0.00000      3.27910      5.92021         0.000000     -0.058750     -1.742062
      3.46681      3.65451      2.45340         0.000000      0.058750     -1.742062
      1.63299      3.17846      4.76990        -1.305254     -0.910243      0.921381
      1.83381      3.75515      1.30309         1.305254      0.910243      0.921381
      5.09980      3.75515      1.30309        -1.305254      0.910243      0.921381
      5.30062      3.17846      4.76990         1.305254     -0.910243      0.921381
      0.00000      5.00652      6.92819         0.000000      2.881698      0.223591
      3.46681      1.92710      3.46138         0.000000     -2.881698      0.223591
      0.00000      1.75296      0.27923         0.000000     -3.361360      1.682884
      3.46681      5.18066      3.74603         0.000000      3.361360      1.682884
      0.00000      0.62842      2.71912         0.000000     -1.542585      0.018590
      3.46681      6.30519      6.18592         0.000000      1.542585      0.018590
      5.09916      5.03544      5.99299        -0.388694     -1.166802     -1.012882
      5.30126      1.89817      2.52618         0.388694      1.166802     -1.012882
      1.63236      1.89817      2.52618        -0.388694      1.166802     -1.012882
      1.83445      5.03544      5.99299         0.388694     -1.166802     -1.012882
 -----------------------------------------------------------------------------------
    total drift:                               -0.000000      0.000000      0.003306


--------------------------------------------------------------------------------------------------------



  FREE ENERGIE OF THE ION-ELECTRON SYSTEM (eV)
  ---------------------------------------------------
  free  energy   TOTEN  =       -62.78990309 eV

  energy  without entropy=      -62.78990309  energy(sigma->0) =      -62.78990309
 


--------------------------------------------------------------------------------------------------------


    POTLOK:  cpu time    0.0055: real time    0.0056


--------------------------------------------------------------------------------------------------------


     LOOP+:  cpu time    4.0582: real time    4.1199
    4ORBIT:  cpu time    0.0000: real time    0.0000
 BZINTS: Fermi energy:  3.061696; 76.000000 electrons
         Band energy:-735.917257;  BLOECHL correction:  0.000000

 total amount of memory used by VASP MPI-rank0    34160. kBytes
=======================================================================

   base      :      30000. kBytes
   nonlr-proj:       1238. kBytes
   fftplans  :        805. kBytes
   grid      :       1476. kBytes
   one-center:          3. kBytes
   wavefun   :        638. kBytes
 
  
  
 General timing and accounting informations for this job:
 ========================================================
  
                  Total CPU time used (sec):        5.044
                            User time (sec):        4.626
                          System time (sec):        0.418
                         Elapsed time (sec):        6.468
  
                   Maximum memory used (kb):      144452.
                   Average memory used (kb):           0.
  
                          Minor page faults:        21396
                          Major page faults:           80
                 Voluntary context switches:         1964
