 vasp.5.4.4.18Apr17-6-g9f103f2a35 (build Feb 28 2020 14:15:47) complex          
  
 executed on             LinuxIFC date 2022.08.06  16:06:46
 running on   64 total cores
 distrk:  each k-point on   64 cores,    1 groups
 distr:  one band on NCORES_PER_BAND=  16 cores,    4 groups


--------------------------------------------------------------------------------------------------------


 INCAR:
 POTCAR:    PAW P 26Mar2009                       
 POTCAR:    PAW S 27Mar2009                       
 POTCAR:    PAW Li_sv 10Sep2004                   
 POTCAR:    PAW P 26Mar2009                       
   VRHFIN =P : s2p3                                                             
   LEXCH  = CA                                                                  
   EATOM  =   176.5121 eV,   12.9733 Ry                                         
                                                                                
   TITEL  = PAW P 26Mar2009                                                     
   LULTRA =        F    use ultrasoft PP ?                                      
   IUNSCR =        1    unscreen: 0-lin 1-nonlin 2-no                           
   RPACOR =    1.500    partial core radius                                     
   POMASS =   30.974; ZVAL   =    5.000    mass and valenz                      
   RCORE  =    1.900    outmost cutoff radius                                   
   RWIGS  =    2.330; RWIGS  =    1.233    wigner-seitz radius (au A)           
   ENMAX  =  255.155; ENMIN  =  191.366 eV                                      
   ICORE  =        2    local potential                                         
   LCOR   =        T    correct aug charges                                     
   LPAW   =        T    paw PP                                                  
   EAUG   =  342.924                                                            
   DEXC   =    0.000                                                            
   RMAX   =    1.935    core radius for proj-oper                               
   RAUG   =    1.300    factor for augmentation sphere                          
   RDEP   =    1.931    radius for radial grids                                 
   RDEPT  =    1.780    core radius for aug-charge                              
                                                                                
   Atomic configuration                                                         
    6 entries                                                                   
     n  l   j            E        occ.                                          
     1  0  0.50     -2072.7761   2.0000                                         
     2  0  0.50      -172.9483   2.0000                                         
     2  1  1.50      -124.4644   6.0000                                         
     3  0  0.50       -14.0086   2.0000                                         
     3  1  0.50        -5.6037   3.0000                                         
     3  2  1.50        -6.8029   0.0000                                         
   Description                                                                  
     l       E           TYP  RCUT    TYP  RCUT                                 
     0    -14.0086211     23  1.900                                             
     0    -11.8189335     23  1.900                                             
     1     -5.6037292     23  1.900                                             
     1     -0.3527308     23  1.900                                             
     2     -6.8029130     23  1.900                                             
  local pseudopotential read in
  partial core-charges read in
  partial kinetic energy density read in
  atomic valenz-charges read in
  non local Contribution for L=           0  read in
    real space projection operators read in
  non local Contribution for L=           0  read in
    real space projection operators read in
  non local Contribution for L=           1  read in
    real space projection operators read in
  non local Contribution for L=           1  read in
    real space projection operators read in
    PAW grid and wavefunctions read in
 
   number of l-projection  operators is LMAX  =           4
   number of lm-projection operators is LMMAX =           8
 
 POTCAR:    PAW S 27Mar2009                       
   VRHFIN =S : s2p4                                                             
   LEXCH  = CA                                                                  
   EATOM  =   277.3745 eV,   20.3864 Ry                                         
                                                                                
   TITEL  = PAW S 27Mar2009                                                     
   LULTRA =        F    use ultrasoft PP ?                                      
   IUNSCR =        1    unscreen: 0-lin 1-nonlin 2-no                           
   RPACOR =    1.500    partial core radius                                     
   POMASS =   32.066; ZVAL   =    6.000    mass and valenz                      
   RCORE  =    1.900    outmost cutoff radius                                   
   RWIGS  =    2.200; RWIGS  =    1.164    wigner-seitz radius (au A)           
   ENMAX  =  258.602; ENMIN  =  193.952 eV                                      
   ICORE  =        2    local potential                                         
   LCOR   =        T    correct aug charges                                     
   LPAW   =        T    paw PP                                                  
   EAUG   =  335.092                                                            
   DEXC   =    0.000                                                            
   RMAX   =    1.942    core radius for proj-oper                               
   RAUG   =    1.300    factor for augmentation sphere                          
   RDEP   =    1.954    radius for radial grids                                 
   RDEPT  =    1.744    core radius for aug-charge                              
                                                                                
   Atomic configuration                                                         
    6 entries                                                                   
     n  l   j            E        occ.                                          
     1  0  0.50     -2393.1495   2.0000                                         
     2  0  0.50      -210.5411   2.0000                                         
     2  1  1.50      -156.4410   6.0000                                         
     3  0  0.50       -17.2664   2.0000                                         
     3  1  0.50        -7.1129   4.0000                                         
     3  2  1.50        -8.1635   0.0000                                         
   Description                                                                  
     l       E           TYP  RCUT    TYP  RCUT                                 
     0    -17.2664422     23  1.900                                             
     0    -15.8420823     23  1.900                                             
     1     -7.1129072     23  1.900                                             
     1     -2.8398274     23  1.900                                             
     2     -8.1634956     23  1.900                                             
  local pseudopotential read in
  partial core-charges read in
  partial kinetic energy density read in
  atomic valenz-charges read in
  non local Contribution for L=           0  read in
    real space projection operators read in
  non local Contribution for L=           0  read in
    real space projection operators read in
  non local Contribution for L=           1  read in
    real space projection operators read in
  non local Contribution for L=           1  read in
    real space projection operators read in
    PAW grid and wavefunctions read in
 
   number of l-projection  operators is LMAX  =           4
   number of lm-projection operators is LMMAX =           8
 
 POTCAR:    PAW Li_sv 10Sep2004                   
   VRHFIN =Li: 1s2s                                                             
   LEXCH  = CA                                                                  
   EATOM  =   199.5738 eV,   14.6683 Ry                                         
                                                                                
   TITEL  = PAW Li_sv 10Sep2004                                                 
   LULTRA =        F    use ultrasoft PP ?                                      
   IUNSCR =        0    unscreen: 0-lin 1-nonlin 2-no                           
   RPACOR =    0.000    partial core radius                                     
   POMASS =    7.010; ZVAL   =    3.000    mass and valenz                      
   RCORE  =    1.700    outmost cutoff radius                                   
   RWIGS  =    2.050; RWIGS  =    1.085    wigner-seitz radius (au A)           
   ENMAX  =  498.387; ENMIN  =  373.790 eV                                      
   ICORE  =        2    local potential                                         
   LCOR   =        T    correct aug charges                                     
   LPAW   =        T    paw PP                                                  
   EAUG   =  628.945                                                            
   RMAX   =    1.732    core radius for proj-oper                               
   RAUG   =    1.300    factor for augmentation sphere                          
   RDEP   =    1.728    radius for radial grids                                 
   RDEPT  =    1.329    core radius for aug-charge                              
                                                                                
   Atomic configuration                                                         
    4 entries                                                                   
     n  l   j            E        occ.                                          
     1  0  0.50       -51.0884   2.0000                                         
     2  0  0.50        -2.8766   1.0000                                         
     2  1  0.50        -2.8708   0.0000                                         
     3  2  1.50        -1.3606   0.0000                                         
   Description                                                                  
     l       E           TYP  RCUT    TYP  RCUT                                 
     0    -51.0884324     23  1.400                                             
     0     -2.8766458     23  1.700                                             
     1     -2.8708293     23  1.400                                             
     2     -1.3605826     23  1.400                                             
  local pseudopotential read in
  atomic valenz-charges read in
  non local Contribution for L=           0  read in
    real space projection operators read in
  non local Contribution for L=           0  read in
    real space projection operators read in
  non local Contribution for L=           1  read in
    real space projection operators read in
    PAW grid and wavefunctions read in
 
   number of l-projection  operators is LMAX  =           3
   number of lm-projection operators is LMMAX =           5
 
 Optimization of the real space projectors (new method)

 maximal supplied QI-value         = 19.84
 optimisation between [QCUT,QGAM] = [ 10.32, 20.83] = [ 29.81,121.55] Ry 
 Optimized for a Real-space Cutoff    1.39 Angstroem

   l    n(q)    QCUT    max X(q) W(low)/X(q) W(high)/X(q)  e(spline) 
   0      9    10.318   158.476    0.64E-04    0.80E-04    0.60E-07
   0      9    10.318   128.097    0.63E-04    0.79E-04    0.60E-07
   1      8    10.318    73.217    0.18E-03    0.19E-03    0.20E-06
   1      8    10.318    48.248    0.18E-03    0.19E-03    0.19E-06
 Optimization of the real space projectors (new method)

 maximal supplied QI-value         = 19.84
 optimisation between [QCUT,QGAM] = [ 10.32, 20.83] = [ 29.81,121.55] Ry 
 Optimized for a Real-space Cutoff    1.39 Angstroem

   l    n(q)    QCUT    max X(q) W(low)/X(q) W(high)/X(q)  e(spline) 
   0      9    10.318   180.455    0.73E-04    0.81E-04    0.62E-07
   0      9    10.318   157.733    0.72E-04    0.81E-04    0.62E-07
   1      8    10.318    66.201    0.18E-03    0.20E-03    0.20E-06
   1      8    10.318    49.617    0.18E-03    0.20E-03    0.20E-06
 Optimization of the real space projectors (new method)

 maximal supplied QI-value         = 22.11
 optimisation between [QCUT,QGAM] = [ 10.39, 20.78] = [ 30.24,120.96] Ry 
 Optimized for a Real-space Cutoff    1.20 Angstroem

   l    n(q)    QCUT    max X(q) W(low)/X(q) W(high)/X(q)  e(spline) 
   0      7    10.392    10.443    0.77E-04    0.41E-05    0.30E-07
   0      7    10.392     8.514    0.20E-03    0.36E-04    0.67E-07
   1      7    10.392     5.406    0.20E-03    0.20E-03    0.12E-06
  PAW P 26Mar2009                       :
 energy of atom  1       EATOM= -176.5121
 kinetic energy error for atom=    0.0021 (will be added to EATOM!!)
  PAW S 27Mar2009                       :
 energy of atom  2       EATOM= -277.3745
 kinetic energy error for atom=    0.0041 (will be added to EATOM!!)
  PAW Li_sv 10Sep2004                   :
 energy of atom  3       EATOM= -199.5738
 kinetic energy error for atom=    0.0564 (will be added to EATOM!!)
 
 
 POSCAR: Good luck                               
  positions in cartesian coordinates
  No initial velocities read in
 exchange correlation table for  LEXCH =        2
   RHO(1)=    0.500       N(1)  =     2000
   RHO(2)=  100.500       N(2)  =     4000
 


--------------------------------------------------------------------------------------------------------


 ion  position               nearest neighbor table
   1  0.000  0.150  0.830-   9 2.00   6 2.00   3 2.00   7 2.00
   2  0.500  0.850  0.330-  10 2.00   5 2.00   4 2.00   8 2.00
   3  0.236  0.179  0.666-   1 2.00  10 2.40
   4  0.264  0.821  0.166-   2 2.00   9 2.40
   5  0.736  0.821  0.166-   2 2.00   9 2.40
   6  0.764  0.179  0.666-   1 2.00  10 2.40
   7  0.000  0.353  0.035-  11 1.97   1 2.00  14 2.49  15 2.49
   8  0.500  0.647  0.535-  12 1.97   2 2.00  16 2.49  13 2.49
   9  0.000  0.889  0.953-   1 2.00  11 2.27   5 2.40   4 2.40  13 2.62  16 2.62
  10  0.500  0.111  0.453-   2 2.00  12 2.27   6 2.40   3 2.40  15 2.62  14 2.62
  11  0.000  0.576  0.857-   7 1.97   9 2.27  13 2.46  16 2.46
  12  0.500  0.424  0.357-   8 1.97  10 2.27  15 2.46  14 2.46
  13  0.187  0.786  0.641-  11 2.46   8 2.49  16 2.60   9 2.62
  14  0.313  0.214  0.141-  12 2.46   7 2.49  15 2.60  10 2.62
  15  0.687  0.214  0.141-  12 2.46   7 2.49  14 2.60  10 2.62
  16  0.813  0.786  0.641-  11 2.46   8 2.49  13 2.60   9 2.62
 
  LATTYP: Found a simple cubic cell.
 ALAT       =     6.9336127435
  
  Lattice vectors:
  
 A1 = (   6.9336127435,   0.0000000000,   0.0000000000)
 A2 = (   0.0000000000,   6.9336127435,   0.0000000000)
 A3 = (   0.0000000000,   0.0000000000,   6.9336127435)


Analysis of symmetry for initial positions (statically):
=====================================================================
 Subroutine PRICEL returns:
 Original cell was already a primitive cell.
 

 Routine SETGRP: Setting up the symmetry group for a 
 simple cubic supercell.


 Subroutine GETGRP returns: Found  4 space group operations
 (whereof  2 operations were pure point group operations)
 out of a pool of 48 trial point group operations.


The static configuration has the point symmetry C_1h.
 The point group associated with its full space group is C_2v.


Analysis of symmetry for dynamics (positions and initial velocities):
=====================================================================
 Subroutine PRICEL returns:
 Original cell was already a primitive cell.
 

 Routine SETGRP: Setting up the symmetry group for a 
 simple cubic supercell.


 Subroutine GETGRP returns: Found  4 space group operations
 (whereof  2 operations were pure point group operations)
 out of a pool of 48 trial point group operations.


The dynamic configuration has the point symmetry C_1h.
 The point group associated with its full space group is C_2v.


 Subroutine INISYM returns: Found  4 space group operations
 (whereof  2 operations are pure point group operations),
 and found     1 'primitive' translations

 
 
 KPOINTS: Automatic mesh                          

Automatic generation of k-mesh.
Space group operators:
 irot       det(A)        alpha          n_x          n_y          n_z        tau_x        tau_y        tau_z
    1     1.000000     0.000000     1.000000     0.000000     0.000000     0.000000     0.000000     0.000000
    2    -1.000000   180.000000     1.000000     0.000000     0.000000     0.000000     0.000000     0.000000
    3     1.000000   180.000000     0.000000     0.000000     1.000000     0.500000     0.000000     0.500000
    4    -1.000000   180.000000     0.000000     1.000000     0.000000     0.500000     0.000000     0.500000
 
 Subroutine IBZKPT returns following result:
 ===========================================
 
 Found      8 irreducible k-points:
 
 Following reciprocal coordinates:
            Coordinates               Weight
  0.000000  0.000000  0.000000      1.000000
  0.333333  0.000000  0.000000      2.000000
  0.000000  0.333333  0.000000      2.000000
  0.333333  0.333333  0.000000      4.000000
  0.000000  0.000000  0.333333      2.000000
  0.333333  0.000000  0.333333      4.000000
  0.000000  0.333333  0.333333      4.000000
  0.333333  0.333333  0.333333      8.000000
 
 Following cartesian coordinates:
            Coordinates               Weight
  0.000000  0.000000  0.000000      1.000000
  0.048075  0.000000  0.000000      2.000000
  0.000000  0.048075  0.000000      2.000000
  0.048075  0.048075  0.000000      4.000000
  0.000000  0.000000  0.048075      2.000000
  0.048075  0.000000  0.048075      4.000000
  0.000000  0.048075  0.048075      4.000000
  0.048075  0.048075  0.048075      8.000000
 
 TETIRR: Found     70 inequivalent tetrahedra from      162


--------------------------------------------------------------------------------------------------------




 Dimension of arrays:
   k-points           NKPTS =      8   k-points in BZ     NKDIM =      8   number of bands    NBANDS=     48
   number of dos      NEDOS =    301   number of ions     NIONS =     16
   non local maximal  LDIM  =      4   non local SUM 2l+1 LMDIM =      8
   total plane-waves  NPLWV = 110592
   max r-space proj   IRMAX =   3763   max aug-charges    IRDMAX=  10651
   dimension x,y,z NGX =    48 NGY =   48 NGZ =   48
   dimension x,y,z NGXF=    96 NGYF=   96 NGZF=   96
   support grid    NGXF=    96 NGYF=   96 NGZF=   96
   ions per type =               2   8   6
   NGX,Y,Z   is equivalent  to a cutoff of  11.51, 11.51, 11.51 a.u.
   NGXF,Y,Z  is equivalent  to a cutoff of  23.02, 23.02, 23.02 a.u.

 SYSTEM =  unknown system                          
 POSCAR =  Good luck                               

 Startparameter for this run:
   NWRITE =      2    write-flag & timer
   PREC   = accura    normal or accurate (medium, high low for compatibility)
   ISTART =      0    job   : 0-new  1-cont  2-samecut
   ICHARG =      2    charge: 1-file 2-atom 10-const
   ISPIN  =      1    spin polarized calculation?
   LNONCOLLINEAR =      F non collinear calculations
   LSORBIT =      F    spin-orbit coupling
   INIWAV =      1    electr: 0-lowe 1-rand  2-diag
   LASPH  =      F    aspherical Exc in radial PAW
   METAGGA=      F    non-selfconsistent MetaGGA calc.

 Electronic Relaxation 1
   ENCUT  =  420.0 eV  30.87 Ry    5.56 a.u.  11.59 11.59 11.59*2*pi/ulx,y,z
   ENINI  =  420.0     initial cutoff
   ENAUG  =  628.9 eV  augmentation charge cutoff
   NELM   =    100;   NELMIN=  2; NELMDL= -5     # of ELM steps 
   EDIFF  = 0.2E-04   stopping-criterion for ELM
   LREAL  =      T    real-space projection
   NLSPLINE    = F    spline interpolate recip. space projectors
   LCOMPAT=      F    compatible to vasp.4.4
   GGA_COMPAT  = T    GGA compatible to vasp.4.4-vasp.4.6
   LMAXPAW     = -100 max onsite density
   LMAXMIX     =    2 max onsite mixed and CHGCAR
   VOSKOWN=      0    Vosko Wilk Nusair interpolation
   ROPT   =   -0.00025  -0.00025  -0.00025
 Ionic relaxation
   EDIFFG = 0.2E-03   stopping-criterion for IOM
   NSW    =      0    number of steps for IOM
   NBLOCK =      1;   KBLOCK =      1    inner block; outer block 
   IBRION =     -1    ionic relax: 0-MD 1-quasi-New 2-CG
   NFREE  =      1    steps in history (QN), initial steepest desc. (CG)
   ISIF   =      7    stress and relaxation
   IWAVPR =     10    prediction:  0-non 1-charg 2-wave 3-comb
   ISYM   =      2    0-nonsym 1-usesym 2-fastsym
   LCORR  =      T    Harris-Foulkes like correction to forces

   POTIM  = 0.5000    time-step for ionic-motion
   TEIN   =    0.0    initial temperature
   TEBEG  =    0.0;   TEEND  =   0.0 temperature during run
   SMASS  =  -3.00    Nose mass-parameter (am)
   estimated Nose-frequenzy (Omega)   =  0.10E-29 period in steps =****** mass=  -0.110E-26a.u.
   SCALEE = 1.0000    scale energy and forces
   NPACO  =    256;   APACO  = 16.0  distance and # of slots for P.C.
   PSTRESS=    0.0 pullay stress

  Mass of Ions in am
   POMASS =  30.97 32.07  7.01
  Ionic Valenz
   ZVAL   =   5.00  6.00  3.00
  Atomic Wigner-Seitz radii
   RWIGS  =  -1.00 -1.00 -1.00
  virtual crystal weights 
   VCA    =   1.00  1.00  1.00
   NELECT =      76.0000    total number of electrons
   NUPDOWN=      -1.0000    fix difference up-down

 DOS related values:
   EMIN   =  10.00;   EMAX   =-10.00  energy-range for DOS
   EFERMI =   0.00
   ISMEAR =    -5;   SIGMA  =   0.20  broadening in eV -4-tet -1-fermi 0-gaus

 Electronic relaxation 2 (details)
   IALGO  =     68    algorithm
   LDIAG  =      T    sub-space diagonalisation (order eigenvalues)
   LSUBROT=      F    optimize rotation matrix (better conditioning)
   TURBO    =      0    0=normal 1=particle mesh
   IRESTART =      0    0=no restart 2=restart with 2 vectors
   NREBOOT  =      0    no. of reboots
   NMIN     =      0    reboot dimension
   EREF     =   0.00    reference energy to select bands
   IMIX   =      4    mixing-type and parameters
     AMIX     =   0.40;   BMIX     =  1.00
     AMIX_MAG =   1.60;   BMIX_MAG =  1.00
     AMIN     =   0.10
     WC   =   100.;   INIMIX=   1;  MIXPRE=   1;  MAXMIX= -45

 Intra band minimization:
   WEIMIN = 0.0000     energy-eigenvalue tresh-hold
   EBREAK =  0.10E-06  absolut break condition
   DEPER  =   0.30     relativ break condition  

   TIME   =   0.40     timestep for ELM

  volume/ion in A,a.u.               =      20.83       140.59
  Fermi-wavevector in a.u.,A,eV,Ry     =   1.000122  1.889957 13.609154  1.000245
  Thomas-Fermi vector in A             =   2.132458
 
 Write flags
   LWAVE        =      F    write WAVECAR
   LDOWNSAMPLE  =      F    k-point downsampling of WAVECAR
   LCHARG       =      F    write CHGCAR
   LVTOT        =      F    write LOCPOT, total local potential
   LVHAR        =      F    write LOCPOT, Hartree potential only
   LELF         =      F    write electronic localiz. function (ELF)
   LORBIT       =      0    0 simple, 1 ext, 2 COOP (PROOUT), +10 PAW based schemes


 Dipole corrections
   LMONO  =      F    monopole corrections only (constant potential shift)
   LDIPOL =      F    correct potential (dipole corrections)
   IDIPOL =      0    1-x, 2-y, 3-z, 4-all directions 
   EPSILON=  1.0000000 bulk dielectric constant

 Exchange correlation treatment:
   GGA     =    --    GGA type
   LEXCH   =     2    internal setting for exchange type
   VOSKOWN=      0    Vosko Wilk Nusair interpolation
   LHFCALC =     F    Hartree Fock is set to
   LHFONE  =     F    Hartree Fock one center treatment
   AEXX    =    0.0000 exact exchange contribution

 Linear response parameters
   LEPSILON=     F    determine dielectric tensor
   LRPA    =     F    only Hartree local field effects (RPA)
   LNABLA  =     F    use nabla operator in PAW spheres
   LVEL    =     F    velocity operator in full k-point grid
   LINTERFAST=   F  fast interpolation
   KINTER  =     0    interpolate to denser k-point grid
   CSHIFT  =0.1000    complex shift for real part using Kramers Kronig
   OMEGAMAX=  -1.0    maximum frequency
   DEG_THRESHOLD= 0.2000000E-02 threshold for treating states as degnerate
   RTIME   =   -0.100 relaxation time in fs
  (WPLASMAI=    0.000 imaginary part of plasma frequency in eV, 0.658/RTIME)
   DFIELD  = 0.0000000 0.0000000 0.0000000 field for delta impulse in time
 
 Orbital magnetization related:
   ORBITALMAG=     F  switch on orbital magnetization
   LCHIMAG   =     F  perturbation theory with respect to B field
   DQ        =  0.001000  dq finite difference perturbation B field
   LLRAUG    =     F  two centre corrections for induced B field



--------------------------------------------------------------------------------------------------------


 Static calculation
 charge density and potential will be updated during run
 non-spin polarized calculation
 RMM-DIIS sequential band-by-band and
  variant of blocked Davidson during initial phase
 perform sub-space diagonalisation
    before iterative eigenvector-optimisation
 modified Broyden-mixing scheme, WC =      100.0
 initial mixing is a Kerker type mixing with AMIX =  0.4000 and BMIX =      1.0000
 Hartree-type preconditioning will be used
 using additional bands           10
 real space projection scheme for non local part
 use partial core corrections
 calculate Harris-corrections to forces 
   (improved forces if not selfconsistent)
 use of overlap-Matrix (Vanderbilt PP)
 Fermi weights with tetrahedron method with Bloechl corrections


--------------------------------------------------------------------------------------------------------


  energy-cutoff  :      420.00
  volume of cell :      333.33
      direct lattice vectors                 reciprocal lattice vectors
     6.933612744  0.000000000  0.000000000     0.144224957  0.000000000  0.000000000
     0.000000000  6.933612744  0.000000000     0.000000000  0.144224957  0.000000000
     0.000000000  0.000000000  6.933612744     0.000000000  0.000000000  0.144224957

  length of vectors
     6.933612744  6.933612744  6.933612744     0.144224957  0.144224957  0.144224957


 
 k-points in units of 2pi/SCALE and weight: Automatic mesh                          
   0.00000000  0.00000000  0.00000000       0.037
   0.04807499  0.00000000  0.00000000       0.074
   0.00000000  0.04807499  0.00000000       0.074
   0.04807499  0.04807499  0.00000000       0.148
   0.00000000  0.00000000  0.04807499       0.074
   0.04807499  0.00000000  0.04807499       0.148
   0.00000000  0.04807499  0.04807499       0.148
   0.04807499  0.04807499  0.04807499       0.296
 
 k-points in reciprocal lattice and weights: Automatic mesh                          
   0.00000000  0.00000000  0.00000000       0.037
   0.33333333  0.00000000  0.00000000       0.074
   0.00000000  0.33333333  0.00000000       0.074
   0.33333333  0.33333333  0.00000000       0.148
   0.00000000  0.00000000  0.33333333       0.074
   0.33333333  0.00000000  0.33333333       0.148
   0.00000000  0.33333333  0.33333333       0.148
   0.33333333  0.33333333  0.33333333       0.296
 
 position of ions in fractional coordinates (direct lattice) 
   0.00000000  0.14963836  0.82979114
   0.50000000  0.85036164  0.32979114
   0.23551848  0.17855715  0.66578450
   0.26448152  0.82144285  0.16578450
   0.73551848  0.82144285  0.16578450
   0.76448152  0.17855715  0.66578450
   0.00000000  0.35265998  0.03469514
   0.50000000  0.64734002  0.53469514
   0.00000000  0.88877914  0.95290044
   0.50000000  0.11122086  0.45290044
   0.00000000  0.57555796  0.85747724
   0.50000000  0.42444204  0.35747724
   0.18731108  0.78640529  0.64130742
   0.31268892  0.21359471  0.14130742
   0.68731108  0.21359471  0.14130742
   0.81268892  0.78640529  0.64130742
 
 position of ions in cartesian coordinates  (Angst):
   0.00000000  1.03753442  5.75345045
   3.46680637  5.89607833  2.28664408
   1.63299392  1.23804616  4.61629188
   1.83381245  5.69556659  1.14948550
   5.09980030  5.69556659  1.14948550
   5.30061882  1.23804616  4.61629188
   0.00000000  2.44520776  0.24056270
   3.46680637  4.48840499  3.70736907
   0.00000000  6.16245035  6.60704260
   3.46680637  0.77116240  3.14023623
   0.00000000  3.99069598  5.94541510
   3.46680637  2.94291676  2.47860872
   1.29874250  5.45262977  4.44657727
   2.16806387  1.48098297  0.97977090
   4.76554888  1.48098297  0.97977090
   5.63487024  5.45262977  4.44657727
 


--------------------------------------------------------------------------------------------------------


 k-point  1 :   0.0000 0.0000 0.0000  plane waves:    6619
 k-point  2 :   0.3333 0.0000 0.0000  plane waves:    6515
 k-point  3 :   0.0000 0.3333 0.0000  plane waves:    6515
 k-point  4 :   0.3333 0.3333 0.0000  plane waves:    6512
 k-point  5 :   0.0000 0.0000 0.3333  plane waves:    6515
 k-point  6 :   0.3333 0.0000 0.3333  plane waves:    6512
 k-point  7 :   0.0000 0.3333 0.3333  plane waves:    6512
 k-point  8 :   0.3333 0.3333 0.3333  plane waves:    6497

 maximum and minimum number of plane-waves per node :       427      395

 maximum number of plane-waves:      6619
 maximum index in each direction: 
   IXMAX=   11   IYMAX=   11   IZMAX=   11
   IXMIN=  -11   IYMIN=  -11   IZMIN=  -11


 real space projection operators:
  total allocation   :       2795.50 KBytes
  max/ min on nodes  :        179.97        171.43


 parallel 3D FFT for wavefunctions:
    minimum data exchange during FFTs selected (reduces bandwidth)
 parallel 3D FFT for charge:
    minimum data exchange during FFTs selected (reduces bandwidth)


 total amount of memory used by VASP MPI-rank0    34150. kBytes
=======================================================================

   base      :      30000. kBytes
   nonlr-proj:       1228. kBytes
   fftplans  :        805. kBytes
   grid      :       1476. kBytes
   one-center:          3. kBytes
   wavefun   :        638. kBytes
 
     INWAV:  cpu time    0.0000: real time    0.0000
 Broyden mixing: mesh for mixing (old mesh)
   NGX = 23   NGY = 23   NGZ = 23
  (NGX  = 96   NGY  = 96   NGZ  = 96)
  gives a total of  12167 points

 initial charge density was supplied:
 charge density of overlapping atoms calculated
 number of electron      76.0000000 magnetization 
 keeping initial charge density in first step


--------------------------------------------------------------------------------------------------------


 Maximum index for non-local projection operator          287
 Maximum index for augmentation-charges          570 (set IRDMAX)


--------------------------------------------------------------------------------------------------------


 First call to EWALD:  gamma=   0.256
 Maximum number of real-space cells 3x 3x 3
 Maximum number of reciprocal cells 3x 3x 3

    FEWALD:  cpu time    0.0016: real time    0.0016


--------------------------------------- Iteration      1(   1)  ---------------------------------------


    POTLOK:  cpu time    0.0061: real time    0.0121
    SETDIJ:  cpu time    0.0057: real time    0.0071
     EDDAV:  cpu time    0.1963: real time    0.2113
 BZINTS: Fermi energy: 13.624433; 76.000000 electrons
         Band energy:-206.704481;  BLOECHL correction: -0.041728
       DOS:  cpu time    0.0043: real time    0.0051
    --------------------------------------------
      LOOP:  cpu time    0.2124: real time    0.2355

 eigenvalue-minimisations  :   768
 total energy-change (2. order) : 0.5217085E+03  (-0.2818634E+04)
 number of electron      76.0000000 magnetization 
 augmentation part       76.0000000 magnetization 

 Free energy of the ion-electron system (eV)
  ---------------------------------------------------
  alpha Z        PSCENC =        59.19887464
  Ewald energy   TEWEN  =     -2279.36731658
  -Hartree energ DENC   =      -955.76825444
  -exchange      EXHF   =         0.00000000
  -V(xc)+E(xc)   XCENC  =       182.15958962
  PAW double counting   =      2494.22442938    -2541.12215007
  entropy T*S    EENTRO =         0.00000000
  eigenvalues    EBANDS =      -206.70448075
  atomic energy  EATOM  =      3769.08782378
  Solvation  Ediel_sol  =         0.00000000
  ---------------------------------------------------
  free energy    TOTEN  =       521.70851558 eV

  energy without entropy =      521.70851558  energy(sigma->0) =      521.70851558


--------------------------------------------------------------------------------------------------------




--------------------------------------- Iteration      1(   2)  ---------------------------------------


     EDDAV:  cpu time    0.1950: real time    0.1985
 BZINTS: Fermi energy:  5.049644; 76.000000 electrons
         Band energy:-716.211640;  BLOECHL correction:  0.000000
       DOS:  cpu time    0.0007: real time    0.0007
    --------------------------------------------
      LOOP:  cpu time    0.1957: real time    0.1992

 eigenvalue-minimisations  :   896
 total energy-change (2. order) :-0.5095072E+03  (-0.4866073E+03)
 number of electron      76.0000000 magnetization 
 augmentation part       76.0000000 magnetization 

 Free energy of the ion-electron system (eV)
  ---------------------------------------------------
  alpha Z        PSCENC =        59.19887464
  Ewald energy   TEWEN  =     -2279.36731658
  -Hartree energ DENC   =      -955.76825444
  -exchange      EXHF   =         0.00000000
  -V(xc)+E(xc)   XCENC  =       182.15958962
  PAW double counting   =      2494.22442938    -2541.12215007
  entropy T*S    EENTRO =         0.00000000
  eigenvalues    EBANDS =      -716.21163966
  atomic energy  EATOM  =      3769.08782378
  Solvation  Ediel_sol  =         0.00000000
  ---------------------------------------------------
  free energy    TOTEN  =        12.20135667 eV

  energy without entropy =       12.20135667  energy(sigma->0) =       12.20135667


--------------------------------------------------------------------------------------------------------




--------------------------------------- Iteration      1(   3)  ---------------------------------------


     EDDAV:  cpu time    0.2223: real time    0.2266
 BZINTS: Fermi energy:  2.275161; 76.000000 electrons
         Band energy:-788.985444;  BLOECHL correction:  0.000000
       DOS:  cpu time    0.0009: real time    0.0009
    --------------------------------------------
      LOOP:  cpu time    0.2232: real time    0.2275

 eigenvalue-minimisations  :  1088
 total energy-change (2. order) :-0.7277380E+02  (-0.7154278E+02)
 number of electron      76.0000000 magnetization 
 augmentation part       76.0000000 magnetization 

 Free energy of the ion-electron system (eV)
  ---------------------------------------------------
  alpha Z        PSCENC =        59.19887464
  Ewald energy   TEWEN  =     -2279.36731658
  -Hartree energ DENC   =      -955.76825444
  -exchange      EXHF   =         0.00000000
  -V(xc)+E(xc)   XCENC  =       182.15958962
  PAW double counting   =      2494.22442938    -2541.12215007
  entropy T*S    EENTRO =         0.00000000
  eigenvalues    EBANDS =      -788.98544365
  atomic energy  EATOM  =      3769.08782378
  Solvation  Ediel_sol  =         0.00000000
  ---------------------------------------------------
  free energy    TOTEN  =       -60.57244732 eV

  energy without entropy =      -60.57244732  energy(sigma->0) =      -60.57244732


--------------------------------------------------------------------------------------------------------




--------------------------------------- Iteration      1(   4)  ---------------------------------------


     EDDAV:  cpu time    0.2815: real time    0.2815
 BZINTS: Fermi energy:  2.125794; 76.000000 electrons
         Band energy:-796.916669;  BLOECHL correction:  0.000000
       DOS:  cpu time    0.0009: real time    0.0009
    --------------------------------------------
      LOOP:  cpu time    0.2824: real time    0.2824

 eigenvalue-minimisations  :  1440
 total energy-change (2. order) :-0.7931226E+01  (-0.7840014E+01)
 number of electron      76.0000000 magnetization 
 augmentation part       76.0000000 magnetization 

 Free energy of the ion-electron system (eV)
  ---------------------------------------------------
  alpha Z        PSCENC =        59.19887464
  Ewald energy   TEWEN  =     -2279.36731658
  -Hartree energ DENC   =      -955.76825444
  -exchange      EXHF   =         0.00000000
  -V(xc)+E(xc)   XCENC  =       182.15958962
  PAW double counting   =      2494.22442938    -2541.12215007
  entropy T*S    EENTRO =         0.00000000
  eigenvalues    EBANDS =      -796.91666927
  atomic energy  EATOM  =      3769.08782378
  Solvation  Ediel_sol  =         0.00000000
  ---------------------------------------------------
  free energy    TOTEN  =       -68.50367294 eV

  energy without entropy =      -68.50367294  energy(sigma->0) =      -68.50367294


--------------------------------------------------------------------------------------------------------




--------------------------------------- Iteration      1(   5)  ---------------------------------------


     EDDAV:  cpu time    0.2465: real time    0.2465
 BZINTS: Fermi energy:  2.028938; 76.000000 electrons
         Band energy:-798.167533;  BLOECHL correction:  0.000000
       DOS:  cpu time    0.0008: real time    0.0008
    CHARGE:  cpu time    0.0154: real time    0.0158
    MIXING:  cpu time    0.0012: real time    0.0061
    --------------------------------------------
      LOOP:  cpu time    0.2639: real time    0.2692

 eigenvalue-minimisations  :  1216
 total energy-change (2. order) :-0.1250863E+01  (-0.1250430E+01)
 number of electron      76.0000028 magnetization 
 augmentation part       -1.9561465 magnetization 

 Broyden mixing:
  rms(total) = 0.32119E+01    rms(broyden)= 0.32114E+01
  rms(prec ) = 0.34430E+01
  weight for this iteration     100.00

 Free energy of the ion-electron system (eV)
  ---------------------------------------------------
  alpha Z        PSCENC =        59.19887464
  Ewald energy   TEWEN  =     -2279.36731658
  -Hartree energ DENC   =      -955.76825444
  -exchange      EXHF   =         0.00000000
  -V(xc)+E(xc)   XCENC  =       182.15958962
  PAW double counting   =      2494.22442938    -2541.12215007
  entropy T*S    EENTRO =         0.00000000
  eigenvalues    EBANDS =      -798.16753259
  atomic energy  EATOM  =      3769.08782378
  Solvation  Ediel_sol  =         0.00000000
  ---------------------------------------------------
  free energy    TOTEN  =       -69.75453626 eV

  energy without entropy =      -69.75453626  energy(sigma->0) =      -69.75453626


--------------------------------------------------------------------------------------------------------




--------------------------------------- Iteration      1(   6)  ---------------------------------------


    POTLOK:  cpu time    0.0036: real time    0.0036
    SETDIJ:  cpu time    0.0008: real time    0.0008
    EDDIAG:  cpu time    0.0511: real time    0.0528
  RMM-DIIS:  cpu time    0.0899: real time    0.0939
    ORTHCH:  cpu time    0.0078: real time    0.0078
 BZINTS: Fermi energy:  2.734208; 76.000000 electrons
         Band energy:-766.670314;  BLOECHL correction:  0.000000
       DOS:  cpu time    0.0009: real time    0.0009
    CHARGE:  cpu time    0.0144: real time    0.0144
    MIXING:  cpu time    0.0004: real time    0.0003
    --------------------------------------------
      LOOP:  cpu time    0.1690: real time    0.1746

 eigenvalue-minimisations  :  1013
 total energy-change (2. order) : 0.2451486E+01  (-0.6005186E+00)
 number of electron      76.0000028 magnetization 
 augmentation part       -1.8849913 magnetization 

 Broyden mixing:
  rms(total) = 0.19779E+01    rms(broyden)= 0.19779E+01
  rms(prec ) = 0.20615E+01
  weight for this iteration     100.00

 eigenvalues of (default mixing * dielectric matrix)
  average eigenvalue GAMMA=   2.4838
  2.4838

 Free energy of the ion-electron system (eV)
  ---------------------------------------------------
  alpha Z        PSCENC =        59.19887464
  Ewald energy   TEWEN  =     -2279.36731658
  -Hartree energ DENC   =      -984.95173004
  -exchange      EXHF   =         0.00000000
  -V(xc)+E(xc)   XCENC  =       184.19668617
  PAW double counting   =      4419.19016560    -4467.98724006
  entropy T*S    EENTRO =         0.00000000
  eigenvalues    EBANDS =      -766.67031380
  atomic energy  EATOM  =      3769.08782378
  Solvation  Ediel_sol  =         0.00000000
  ---------------------------------------------------
  free energy    TOTEN  =       -67.30305029 eV

  energy without entropy =      -67.30305029  energy(sigma->0) =      -67.30305029


--------------------------------------------------------------------------------------------------------




--------------------------------------- Iteration      1(   7)  ---------------------------------------


    POTLOK:  cpu time    0.0033: real time    0.0033
    SETDIJ:  cpu time    0.0009: real time    0.0009
    EDDIAG:  cpu time    0.0494: real time    0.0494
  RMM-DIIS:  cpu time    0.0906: real time    0.0906
    ORTHCH:  cpu time    0.0079: real time    0.0079
 BZINTS: Fermi energy:  3.156931; 76.000000 electrons
         Band energy:-736.236739;  BLOECHL correction:  0.000000
       DOS:  cpu time    0.0008: real time    0.0008
    CHARGE:  cpu time    0.0143: real time    0.0143
    MIXING:  cpu time    0.0003: real time    0.0003
    --------------------------------------------
      LOOP:  cpu time    0.1673: real time    0.1674

 eigenvalue-minimisations  :  1048
 total energy-change (2. order) : 0.4072947E+00  (-0.5211800E+00)
 number of electron      76.0000027 magnetization 
 augmentation part       -1.8473325 magnetization 

 Broyden mixing:
  rms(total) = 0.31072E+00    rms(broyden)= 0.31062E+00
  rms(prec ) = 0.38754E+00
  weight for this iteration     100.00

 eigenvalues of (default mixing * dielectric matrix)
  average eigenvalue GAMMA=   2.0395
  1.6249  2.4541

 Free energy of the ion-electron system (eV)
  ---------------------------------------------------
  alpha Z        PSCENC =        59.19887464
  Ewald energy   TEWEN  =     -2279.36731658
  -Hartree energ DENC   =     -1015.51506365
  -exchange      EXHF   =         0.00000000
  -V(xc)+E(xc)   XCENC  =       186.50009927
  PAW double counting   =      8657.47788076    -8708.04131484
  entropy T*S    EENTRO =         0.00000000
  eigenvalues    EBANDS =      -736.23673896
  atomic energy  EATOM  =      3769.08782378
  Solvation  Ediel_sol  =         0.00000000
  ---------------------------------------------------
  free energy    TOTEN  =       -66.89575558 eV

  energy without entropy =      -66.89575558  energy(sigma->0) =      -66.89575558


--------------------------------------------------------------------------------------------------------




--------------------------------------- Iteration      1(   8)  ---------------------------------------


    POTLOK:  cpu time    0.0033: real time    0.0033
    SETDIJ:  cpu time    0.0009: real time    0.0009
    EDDIAG:  cpu time    0.0494: real time    0.0494
  RMM-DIIS:  cpu time    0.0867: real time    0.0867
    ORTHCH:  cpu time    0.0072: real time    0.0072
 BZINTS: Fermi energy:  3.112060; 76.000000 electrons
         Band energy:-743.982150;  BLOECHL correction:  0.000000
       DOS:  cpu time    0.0008: real time    0.0008
    CHARGE:  cpu time    0.0143: real time    0.0143
    MIXING:  cpu time    0.0004: real time    0.0004
    --------------------------------------------
      LOOP:  cpu time    0.1630: real time    0.1630

 eigenvalue-minimisations  :  1058
 total energy-change (2. order) : 0.1586889E+00  (-0.4900284E-01)
 number of electron      76.0000027 magnetization 
 augmentation part       -1.9022467 magnetization 

 Broyden mixing:
  rms(total) = 0.59970E-01    rms(broyden)= 0.59952E-01
  rms(prec ) = 0.75323E-01
  weight for this iteration     100.00

 eigenvalues of (default mixing * dielectric matrix)
  average eigenvalue GAMMA=   1.7430
  1.2341  2.3837  1.6111

 Free energy of the ion-electron system (eV)
  ---------------------------------------------------
  alpha Z        PSCENC =        59.19887464
  Ewald energy   TEWEN  =     -2279.36731658
  -Hartree energ DENC   =     -1007.71540780
  -exchange      EXHF   =         0.00000000
  -V(xc)+E(xc)   XCENC  =       186.04021452
  PAW double counting   =      9113.87938368    -9163.87848921
  entropy T*S    EENTRO =         0.00000000
  eigenvalues    EBANDS =      -743.98214968
  atomic energy  EATOM  =      3769.08782378
  Solvation  Ediel_sol  =         0.00000000
  ---------------------------------------------------
  free energy    TOTEN  =       -66.73706664 eV

  energy without entropy =      -66.73706664  energy(sigma->0) =      -66.73706664


--------------------------------------------------------------------------------------------------------




--------------------------------------- Iteration      1(   9)  ---------------------------------------


    POTLOK:  cpu time    0.0033: real time    0.0033
    SETDIJ:  cpu time    0.0008: real time    0.0008
    EDDIAG:  cpu time    0.0502: real time    0.0502
  RMM-DIIS:  cpu time    0.1068: real time    0.1068
    ORTHCH:  cpu time    0.0073: real time    0.0073
 BZINTS: Fermi energy:  3.105045; 76.000000 electrons
         Band energy:-743.185202;  BLOECHL correction:  0.000000
       DOS:  cpu time    0.0008: real time    0.0008
    CHARGE:  cpu time    0.0143: real time    0.0143
    MIXING:  cpu time    0.0004: real time    0.0004
    --------------------------------------------
      LOOP:  cpu time    0.1839: real time    0.1839

 eigenvalue-minimisations  :  1338
 total energy-change (2. order) : 0.1400766E-02  (-0.7825093E-02)
 number of electron      76.0000027 magnetization 
 augmentation part       -1.9213127 magnetization 

 Broyden mixing:
  rms(total) = 0.46449E-01    rms(broyden)= 0.46391E-01
  rms(prec ) = 0.52541E-01
  weight for this iteration     100.00

 eigenvalues of (default mixing * dielectric matrix)
  average eigenvalue GAMMA=   1.7337
  1.1069  2.0822  2.0822  1.6637

 Free energy of the ion-electron system (eV)
  ---------------------------------------------------
  alpha Z        PSCENC =        59.19887464
  Ewald energy   TEWEN  =     -2279.36731658
  -Hartree energ DENC   =     -1008.50673107
  -exchange      EXHF   =         0.00000000
  -V(xc)+E(xc)   XCENC  =       186.09244972
  PAW double counting   =      9071.28179715    -9121.33736187
  entropy T*S    EENTRO =         0.00000000
  eigenvalues    EBANDS =      -743.18520164
  atomic energy  EATOM  =      3769.08782378
  Solvation  Ediel_sol  =         0.00000000
  ---------------------------------------------------
  free energy    TOTEN  =       -66.73566588 eV

  energy without entropy =      -66.73566588  energy(sigma->0) =      -66.73566588


--------------------------------------------------------------------------------------------------------




--------------------------------------- Iteration      1(  10)  ---------------------------------------


    POTLOK:  cpu time    0.0031: real time    0.0034
    SETDIJ:  cpu time    0.0008: real time    0.0008
    EDDIAG:  cpu time    0.0491: real time    0.0491
  RMM-DIIS:  cpu time    0.1143: real time    0.1143
    ORTHCH:  cpu time    0.0081: real time    0.0081
 BZINTS: Fermi energy:  3.102018; 76.000000 electrons
         Band energy:-742.611824;  BLOECHL correction:  0.000000
       DOS:  cpu time    0.0008: real time    0.0008
    CHARGE:  cpu time    0.0147: real time    0.0147
    MIXING:  cpu time    0.0004: real time    0.0004
    --------------------------------------------
      LOOP:  cpu time    0.1913: real time    0.1916

 eigenvalue-minimisations  :  1334
 total energy-change (2. order) :-0.2912260E-02  (-0.2731164E-02)
 number of electron      76.0000027 magnetization 
 augmentation part       -1.9307238 magnetization 

 Broyden mixing:
  rms(total) = 0.23577E-01    rms(broyden)= 0.23510E-01
  rms(prec ) = 0.28269E-01
  weight for this iteration     100.00

 eigenvalues of (default mixing * dielectric matrix)
  average eigenvalue GAMMA=   1.7624
  2.7498  2.3823  1.3853  1.3853  0.9095

 Free energy of the ion-electron system (eV)
  ---------------------------------------------------
  alpha Z        PSCENC =        59.19887464
  Ewald energy   TEWEN  =     -2279.36731658
  -Hartree energ DENC   =     -1009.12008340
  -exchange      EXHF   =         0.00000000
  -V(xc)+E(xc)   XCENC  =       186.12999033
  PAW double counting   =      8936.05686189    -8986.11290458
  entropy T*S    EENTRO =         0.00000000
  eigenvalues    EBANDS =      -742.61182421
  atomic energy  EATOM  =      3769.08782378
  Solvation  Ediel_sol  =         0.00000000
  ---------------------------------------------------
  free energy    TOTEN  =       -66.73857814 eV

  energy without entropy =      -66.73857814  energy(sigma->0) =      -66.73857814


--------------------------------------------------------------------------------------------------------




--------------------------------------- Iteration      1(  11)  ---------------------------------------


    POTLOK:  cpu time    0.0032: real time    0.0035
    SETDIJ:  cpu time    0.0008: real time    0.0008
    EDDIAG:  cpu time    0.0511: real time    0.0511
  RMM-DIIS:  cpu time    0.1023: real time    0.1023
    ORTHCH:  cpu time    0.0073: real time    0.0073
 BZINTS: Fermi energy:  3.099997; 76.000000 electrons
         Band energy:-742.548048;  BLOECHL correction:  0.000000
       DOS:  cpu time    0.0008: real time    0.0008
    CHARGE:  cpu time    0.0144: real time    0.0144
    MIXING:  cpu time    0.0004: real time    0.0004
    --------------------------------------------
      LOOP:  cpu time    0.1803: real time    0.1806

 eigenvalue-minimisations  :  1275
 total energy-change (2. order) :-0.1079032E-02  (-0.9201942E-03)
 number of electron      76.0000027 magnetization 
 augmentation part       -1.9379436 magnetization 

 Broyden mixing:
  rms(total) = 0.98208E-02    rms(broyden)= 0.97882E-02
  rms(prec ) = 0.13328E-01
  weight for this iteration     100.00

 eigenvalues of (default mixing * dielectric matrix)
  average eigenvalue GAMMA=   1.6515
  2.6938  2.0364  2.0364  1.1753  1.1753  0.7920

 Free energy of the ion-electron system (eV)
  ---------------------------------------------------
  alpha Z        PSCENC =        59.19887464
  Ewald energy   TEWEN  =     -2279.36731658
  -Hartree energ DENC   =     -1009.25329623
  -exchange      EXHF   =         0.00000000
  -V(xc)+E(xc)   XCENC  =       186.14591132
  PAW double counting   =      8955.66756540    -9005.67117117
  entropy T*S    EENTRO =         0.00000000
  eigenvalues    EBANDS =      -742.54804833
  atomic energy  EATOM  =      3769.08782378
  Solvation  Ediel_sol  =         0.00000000
  ---------------------------------------------------
  free energy    TOTEN  =       -66.73965717 eV

  energy without entropy =      -66.73965717  energy(sigma->0) =      -66.73965717


--------------------------------------------------------------------------------------------------------




--------------------------------------- Iteration      1(  12)  ---------------------------------------


    POTLOK:  cpu time    0.0032: real time    0.0035
    SETDIJ:  cpu time    0.0008: real time    0.0008
    EDDIAG:  cpu time    0.0499: real time    0.0499
  RMM-DIIS:  cpu time    0.1027: real time    0.1027
    ORTHCH:  cpu time    0.0078: real time    0.0078
 BZINTS: Fermi energy:  3.096642; 76.000000 electrons
         Band energy:-742.145653;  BLOECHL correction:  0.000000
       DOS:  cpu time    0.0008: real time    0.0008
    CHARGE:  cpu time    0.0143: real time    0.0143
    MIXING:  cpu time    0.0004: real time    0.0004
    --------------------------------------------
      LOOP:  cpu time    0.1799: real time    0.1802

 eigenvalue-minimisations  :  1233
 total energy-change (2. order) :-0.3208628E-03  (-0.4974181E-03)
 number of electron      76.0000027 magnetization 
 augmentation part       -1.9393296 magnetization 

 Broyden mixing:
  rms(total) = 0.40113E-02    rms(broyden)= 0.39666E-02
  rms(prec ) = 0.54912E-02
  weight for this iteration     100.00

 eigenvalues of (default mixing * dielectric matrix)
  average eigenvalue GAMMA=   1.5938
  2.5600  2.1436  2.1436  1.5334  1.1618  0.8073  0.8073

 Free energy of the ion-electron system (eV)
  ---------------------------------------------------
  alpha Z        PSCENC =        59.19887464
  Ewald energy   TEWEN  =     -2279.36731658
  -Hartree energ DENC   =     -1009.68740880
  -exchange      EXHF   =         0.00000000
  -V(xc)+E(xc)   XCENC  =       186.17312198
  PAW double counting   =      8948.78543730    -8998.78485767
  entropy T*S    EENTRO =         0.00000000
  eigenvalues    EBANDS =      -742.14565269
  atomic energy  EATOM  =      3769.08782378
  Solvation  Ediel_sol  =         0.00000000
  ---------------------------------------------------
  free energy    TOTEN  =       -66.73997803 eV

  energy without entropy =      -66.73997803  energy(sigma->0) =      -66.73997803


--------------------------------------------------------------------------------------------------------




--------------------------------------- Iteration      1(  13)  ---------------------------------------


    POTLOK:  cpu time    0.0031: real time    0.0034
    SETDIJ:  cpu time    0.0008: real time    0.0008
    EDDIAG:  cpu time    0.0491: real time    0.0491
  RMM-DIIS:  cpu time    0.1032: real time    0.1032
    ORTHCH:  cpu time    0.0078: real time    0.0078
 BZINTS: Fermi energy:  3.092236; 76.000000 electrons
         Band energy:-742.163182;  BLOECHL correction:  0.000000
       DOS:  cpu time    0.0008: real time    0.0008
    CHARGE:  cpu time    0.0142: real time    0.0142
    MIXING:  cpu time    0.0005: real time    0.0005
    --------------------------------------------
      LOOP:  cpu time    0.1795: real time    0.1798

 eigenvalue-minimisations  :  1215
 total energy-change (2. order) :-0.1969207E-03  (-0.2027009E-03)
 number of electron      76.0000027 magnetization 
 augmentation part       -1.9418589 magnetization 

 Broyden mixing:
  rms(total) = 0.20518E-02    rms(broyden)= 0.20201E-02
  rms(prec ) = 0.26950E-02
  weight for this iteration     100.00

 eigenvalues of (default mixing * dielectric matrix)
  average eigenvalue GAMMA=   1.6943
  3.6013  2.1286  2.1286  1.7474  1.3287  0.9300  0.9300  0.7596

 Free energy of the ion-electron system (eV)
  ---------------------------------------------------
  alpha Z        PSCENC =        59.19887464
  Ewald energy   TEWEN  =     -2279.36731658
  -Hartree energ DENC   =     -1009.69866017
  -exchange      EXHF   =         0.00000000
  -V(xc)+E(xc)   XCENC  =       186.17429791
  PAW double counting   =      8940.83653476    -8990.80854727
  entropy T*S    EENTRO =         0.00000000
  eigenvalues    EBANDS =      -742.16318202
  atomic energy  EATOM  =      3769.08782378
  Solvation  Ediel_sol  =         0.00000000
  ---------------------------------------------------
  free energy    TOTEN  =       -66.74017495 eV

  energy without entropy =      -66.74017495  energy(sigma->0) =      -66.74017495


--------------------------------------------------------------------------------------------------------




--------------------------------------- Iteration      1(  14)  ---------------------------------------


    POTLOK:  cpu time    0.0031: real time    0.0034
    SETDIJ:  cpu time    0.0008: real time    0.0008
    EDDIAG:  cpu time    0.0487: real time    0.0487
  RMM-DIIS:  cpu time    0.0916: real time    0.0916
    ORTHCH:  cpu time    0.0077: real time    0.0077
 BZINTS: Fermi energy:  3.088982; 76.000000 electrons
         Band energy:-742.087809;  BLOECHL correction:  0.000000
       DOS:  cpu time    0.0008: real time    0.0008
    CHARGE:  cpu time    0.0142: real time    0.0142
    MIXING:  cpu time    0.0004: real time    0.0004
    --------------------------------------------
      LOOP:  cpu time    0.1674: real time    0.1676

 eigenvalue-minimisations  :  1016
 total energy-change (2. order) :-0.8641693E-04  (-0.8398798E-04)
 number of electron      76.0000027 magnetization 
 augmentation part       -1.9428391 magnetization 

 Broyden mixing:
  rms(total) = 0.12580E-02    rms(broyden)= 0.12377E-02
  rms(prec ) = 0.13677E-02
  weight for this iteration     100.00

 eigenvalues of (default mixing * dielectric matrix)
  average eigenvalue GAMMA=   1.7207
  3.3006  3.0106  2.3535  1.7423  1.2657  1.2657  0.9236  0.9236  0.7006

 Free energy of the ion-electron system (eV)
  ---------------------------------------------------
  alpha Z        PSCENC =        59.19887464
  Ewald energy   TEWEN  =     -2279.36731658
  -Hartree energ DENC   =     -1009.80317322
  -exchange      EXHF   =         0.00000000
  -V(xc)+E(xc)   XCENC  =       186.18222859
  PAW double counting   =      8943.26375602    -8993.21464584
  entropy T*S    EENTRO =         0.00000000
  eigenvalues    EBANDS =      -742.08780876
  atomic energy  EATOM  =      3769.08782378
  Solvation  Ediel_sol  =         0.00000000
  ---------------------------------------------------
  free energy    TOTEN  =       -66.74026137 eV

  energy without entropy =      -66.74026137  energy(sigma->0) =      -66.74026137


--------------------------------------------------------------------------------------------------------




--------------------------------------- Iteration      1(  15)  ---------------------------------------


    POTLOK:  cpu time    0.0031: real time    0.0033
    SETDIJ:  cpu time    0.0008: real time    0.0008
    EDDIAG:  cpu time    0.0506: real time    0.0506
  RMM-DIIS:  cpu time    0.0822: real time    0.0823
    ORTHCH:  cpu time    0.0073: real time    0.0073
 BZINTS: Fermi energy:  3.085362; 76.000000 electrons
         Band energy:-742.084031;  BLOECHL correction:  0.000000
       DOS:  cpu time    0.0008: real time    0.0008
    CHARGE:  cpu time    0.0143: real time    0.0143
    MIXING:  cpu time    0.0005: real time    0.0005
    --------------------------------------------
      LOOP:  cpu time    0.1595: real time    0.1599

 eigenvalue-minimisations  :   961
 total energy-change (2. order) :-0.2870087E-04  (-0.2912856E-04)
 number of electron      76.0000027 magnetization 
 augmentation part       -1.9433393 magnetization 

 Broyden mixing:
  rms(total) = 0.43682E-03    rms(broyden)= 0.42045E-03
  rms(prec ) = 0.52641E-03
  weight for this iteration     100.00

 eigenvalues of (default mixing * dielectric matrix)
  average eigenvalue GAMMA=   1.6776
  3.9266  2.7074  2.2961  1.6803  1.5980  1.0828  1.0828  0.8677  0.8677  0.6666

 Free energy of the ion-electron system (eV)
  ---------------------------------------------------
  alpha Z        PSCENC =        59.19887464
  Ewald energy   TEWEN  =     -2279.36731658
  -Hartree energ DENC   =     -1009.82007514
  -exchange      EXHF   =         0.00000000
  -V(xc)+E(xc)   XCENC  =       186.18367492
  PAW double counting   =      8944.98155473    -8994.92079575
  entropy T*S    EENTRO =         0.00000000
  eigenvalues    EBANDS =      -742.08403067
  atomic energy  EATOM  =      3769.08782378
  Solvation  Ediel_sol  =         0.00000000
  ---------------------------------------------------
  free energy    TOTEN  =       -66.74029007 eV

  energy without entropy =      -66.74029007  energy(sigma->0) =      -66.74029007


--------------------------------------------------------------------------------------------------------




--------------------------------------- Iteration      1(  16)  ---------------------------------------


    POTLOK:  cpu time    0.0064: real time    0.0067
    SETDIJ:  cpu time    0.0009: real time    0.0009
    EDDIAG:  cpu time    0.0506: real time    0.0506
  RMM-DIIS:  cpu time    0.0621: real time    0.0621
    ORTHCH:  cpu time    0.0072: real time    0.0072
 BZINTS: Fermi energy:  3.082336; 76.000000 electrons
         Band energy:-742.078773;  BLOECHL correction:  0.000000
       DOS:  cpu time    0.0008: real time    0.0008
    --------------------------------------------
      LOOP:  cpu time    0.1280: real time    0.1282

 eigenvalue-minimisations  :   700
 total energy-change (2. order) :-0.2337143E-05  (-0.4129723E-05)
 number of electron      76.0000027 magnetization 
 augmentation part       -1.9433393 magnetization 

 Free energy of the ion-electron system (eV)
  ---------------------------------------------------
  alpha Z        PSCENC =        59.19887464
  Ewald energy   TEWEN  =     -2279.36731658
  -Hartree energ DENC   =     -1009.82848688
  -exchange      EXHF   =         0.00000000
  -V(xc)+E(xc)   XCENC  =       186.18433983
  PAW double counting   =      8944.13172020    -8994.06847475
  entropy T*S    EENTRO =         0.00000000
  eigenvalues    EBANDS =      -742.07877265
  atomic energy  EATOM  =      3769.08782378
  Solvation  Ediel_sol  =         0.00000000
  ---------------------------------------------------
  free energy    TOTEN  =       -66.74029241 eV

  energy without entropy =      -66.74029241  energy(sigma->0) =      -66.74029241


--------------------------------------------------------------------------------------------------------




 average (electrostatic) potential at core
  the test charge radii are     0.9587  0.9698  0.7079
  (the norm of the test charge is              1.0000)
       1 -88.2053       2 -88.2053       3 -88.5820       4 -88.5820       5 -88.5820
       6 -88.5820       7 -89.2815       8 -89.2815       9 -89.5595      10 -89.5595
      11 -66.0639      12 -66.0639      13 -66.2685      14 -66.2685      15 -66.2685
      16 -66.2685
 
 
 
 E-fermi :   3.0823     XC(G=0):  -8.2891     alpha+bet : -9.0605


 k-point     1 :       0.0000    0.0000    0.0000
  band No.  band energies     occupation 
      1     -43.4157      2.00000
      2     -43.4155      2.00000
      3     -43.3934      2.00000
      4     -43.3934      2.00000
      5     -43.2399      2.00000
      6     -43.2397      2.00000
      7     -13.7215      2.00000
      8     -13.2606      2.00000
      9     -11.5211      2.00000
     10     -10.9996      2.00000
     11     -10.3439      2.00000
     12      -9.9194      2.00000
     13      -9.6808      2.00000
     14      -9.4786      2.00000
     15      -7.1550      2.00000
     16      -4.7122      2.00000
     17      -4.1219      2.00000
     18      -4.1045      2.00000
     19      -3.3025      2.00000
     20      -2.8208      2.00000
     21      -2.6504      2.00000
     22      -2.3163      2.00000
     23      -1.5446      2.00000
     24      -0.9107      2.00000
     25      -0.6262      2.00000
     26      -0.5418      2.00000
     27      -0.3949      2.00000
     28      -0.3900      2.00000
     29       0.0793      2.00000
     30       0.4359      2.00000
     31       0.6267      2.00000
     32       0.8945      2.00000
     33       1.3410      2.00000
     34       1.5292      2.00000
     35       1.6822      2.00000
     36       2.1269      2.00000
     37       2.5513      2.00000
     38       3.0143      2.00000
     39       3.4213      0.00000
     40       4.3371      0.00000
     41       4.5442      0.00000
     42       4.8710      0.00000
     43       4.9520      0.00000
     44       5.7746      0.00000
     45       5.9117      0.00000
     46       6.1142      0.00000
     47       6.7136      0.00000
     48       6.9001      0.00000

 k-point     2 :       0.3333    0.0000    0.0000
  band No.  band energies     occupation 
      1     -43.4155      2.00000
      2     -43.4154      2.00000
      3     -43.3933      2.00000
      4     -43.3933      2.00000
      5     -43.2397      2.00000
      6     -43.2397      2.00000
      7     -13.6117      2.00000
      8     -13.3797      2.00000
      9     -11.4150      2.00000
     10     -11.1300      2.00000
     11     -10.3717      2.00000
     12     -10.1784      2.00000
     13      -9.6119      2.00000
     14      -9.2618      2.00000
     15      -6.6417      2.00000
     16      -5.4343      2.00000
     17      -4.1254      2.00000
     18      -4.1195      2.00000
     19      -3.2712      2.00000
     20      -3.1683      2.00000
     21      -2.3521      2.00000
     22      -2.0144      2.00000
     23      -1.1598      2.00000
     24      -0.7338      2.00000
     25      -0.7201      2.00000
     26      -0.4194      2.00000
     27      -0.3347      2.00000
     28      -0.3321      2.00000
     29      -0.1541      2.00000
     30       0.3916      2.00000
     31       0.4421      2.00000
     32       0.8223      2.00000
     33       1.0814      2.00000
     34       1.1704      2.00000
     35       1.8350      2.00000
     36       2.0319      2.00000
     37       2.2284      2.00000
     38       2.3298      2.00000
     39       4.0308      0.00000
     40       4.5146      0.00000
     41       5.1188      0.00000
     42       5.2814      0.00000
     43       5.3821      0.00000
     44       5.8131      0.00000
     45       5.9696      0.00000
     46       6.3311      0.00000
     47       6.6201      0.00000
     48       6.8822      0.00000

 k-point     3 :       0.0000    0.3333    0.0000
  band No.  band energies     occupation 
      1     -43.4156      2.00000
      2     -43.4154      2.00000
      3     -43.3933      2.00000
      4     -43.3932      2.00000
      5     -43.2398      2.00000
      6     -43.2396      2.00000
      7     -13.7091      2.00000
      8     -13.2714      2.00000
      9     -11.5425      2.00000
     10     -11.0335      2.00000
     11     -10.2959      2.00000
     12      -9.9121      2.00000
     13      -9.6887      2.00000
     14      -9.4984      2.00000
     15      -6.9734      2.00000
     16      -4.7443      2.00000
     17      -4.1645      2.00000
     18      -4.0656      2.00000
     19      -3.4564      2.00000
     20      -2.8897      2.00000
     21      -2.7903      2.00000
     22      -2.0851      2.00000
     23      -1.6552      2.00000
     24      -1.0061      2.00000
     25      -0.9529      2.00000
     26      -0.6960      2.00000
     27      -0.4617      2.00000
     28      -0.1067      2.00000
     29       0.1551      2.00000
     30       0.3606      2.00000
     31       0.8890      2.00000
     32       1.1635      2.00000
     33       1.3337      2.00000
     34       1.6332      2.00000
     35       1.6987      2.00000
     36       2.1514      2.00000
     37       2.3417      2.00000
     38       2.9376      2.00000
     39       3.4918      0.00000
     40       4.2072      0.00000
     41       4.7695      0.00000
     42       5.1269      0.00000
     43       5.4089      0.00000
     44       5.9980      0.00000
     45       6.2503      0.00000
     46       6.3157      0.00000
     47       6.3311      0.00000
     48       6.6575      0.00000

 k-point     4 :       0.3333    0.3333    0.0000
  band No.  band energies     occupation 
      1     -43.4155      2.00000
      2     -43.4154      2.00000
      3     -43.3933      2.00000
      4     -43.3933      2.00000
      5     -43.2398      2.00000
      6     -43.2397      2.00000
      7     -13.6028      2.00000
      8     -13.3815      2.00000
      9     -11.4504      2.00000
     10     -11.1759      2.00000
     11     -10.3358      2.00000
     12     -10.1543      2.00000
     13      -9.5911      2.00000
     14      -9.2619      2.00000
     15      -6.5182      2.00000
     16      -5.4066      2.00000
     17      -4.1988      2.00000
     18      -4.1680      2.00000
     19      -3.3244      2.00000
     20      -3.1308      2.00000
     21      -2.4403      2.00000
     22      -1.9953      2.00000
     23      -1.1617      2.00000
     24      -0.9738      2.00000
     25      -0.8433      2.00000
     26      -0.6287      2.00000
     27      -0.4720      2.00000
     28      -0.1809      2.00000
     29      -0.1212      2.00000
     30       0.4366      2.00000
     31       0.4652      2.00000
     32       0.8576      2.00000
     33       1.2230      2.00000
     34       1.2678      2.00000
     35       1.9531      2.00000
     36       2.2059      2.00000
     37       2.2838      2.00000
     38       2.4683      2.00000
     39       3.9438      0.00000
     40       4.2845      0.00000
     41       5.3014      0.00000
     42       5.6198      0.00000
     43       5.7709      0.00000
     44       5.9252      0.00000
     45       6.1100      0.00000
     46       6.2894      0.00000
     47       6.7274      0.00000
     48       6.8470      0.00000

 k-point     5 :       0.0000    0.0000    0.3333
  band No.  band energies     occupation 
      1     -43.4156      2.00000
      2     -43.4155      2.00000
      3     -43.3933      2.00000
      4     -43.3933      2.00000
      5     -43.2397      2.00000
      6     -43.2397      2.00000
      7     -13.6277      2.00000
      8     -13.4035      2.00000
      9     -11.3243      2.00000
     10     -11.0700      2.00000
     11     -10.2383      2.00000
     12      -9.8632      2.00000
     13      -9.8372      2.00000
     14      -9.7442      2.00000
     15      -6.5670      2.00000
     16      -5.4706      2.00000
     17      -3.8607      2.00000
     18      -3.8508      2.00000
     19      -3.5476      2.00000
     20      -3.2578      2.00000
     21      -2.4085      2.00000
     22      -2.2613      2.00000
     23      -1.0133      2.00000
     24      -0.8172      2.00000
     25      -0.6170      2.00000
     26      -0.3941      2.00000
     27      -0.3543      2.00000
     28      -0.0444      2.00000
     29       0.0080      2.00000
     30       0.2418      2.00000
     31       0.6318      2.00000
     32       0.6725      2.00000
     33       1.0466      2.00000
     34       1.2698      2.00000
     35       1.8255      2.00000
     36       2.0600      2.00000
     37       2.3356      2.00000
     38       2.5264      2.00000
     39       3.7527      0.00000
     40       4.0909      0.00000
     41       4.5400      0.00000
     42       4.9670      0.00000
     43       5.5194      0.00000
     44       5.9338      0.00000
     45       6.0999      0.00000
     46       6.1687      0.00000
     47       6.7143      0.00000
     48       6.8078      0.00000

 k-point     6 :       0.3333    0.0000    0.3333
  band No.  band energies     occupation 
      1     -43.4155      2.00000
      2     -43.4154      2.00000
      3     -43.3933      2.00000
      4     -43.3933      2.00000
      5     -43.2397      2.00000
      6     -43.2397      2.00000
      7     -13.5567      2.00000
      8     -13.4409      2.00000
      9     -11.3377      2.00000
     10     -11.1928      2.00000
     11     -10.3617      2.00000
     12     -10.2722      2.00000
     13      -9.4944      2.00000
     14      -9.3121      2.00000
     15      -6.4346      2.00000
     16      -5.8702      2.00000
     17      -3.8594      2.00000
     18      -3.8349      2.00000
     19      -3.4029      2.00000
     20      -3.2738      2.00000
     21      -2.2284      2.00000
     22      -2.0307      2.00000
     23      -1.3490      2.00000
     24      -0.8631      2.00000
     25      -0.7926      2.00000
     26      -0.6218      2.00000
     27      -0.3465      2.00000
     28      -0.3455      2.00000
     29      -0.0077      2.00000
     30       0.3575      2.00000
     31       0.6326      2.00000
     32       0.7765      2.00000
     33       1.2408      2.00000
     34       1.3559      2.00000
     35       1.9567      2.00000
     36       2.0911      2.00000
     37       2.3182      2.00000
     38       2.5626      2.00000
     39       3.9928      0.00000
     40       4.1831      0.00000
     41       4.6286      0.00000
     42       5.0089      0.00000
     43       5.4543      0.00000
     44       5.5356      0.00000
     45       5.9310      0.00000
     46       6.2587      0.00000
     47       6.5864      0.00000
     48       6.6638      0.00000

 k-point     7 :       0.0000    0.3333    0.3333
  band No.  band energies     occupation 
      1     -43.4155      2.00000
      2     -43.4155      2.00000
      3     -43.3933      2.00000
      4     -43.3933      2.00000
      5     -43.2398      2.00000
      6     -43.2397      2.00000
      7     -13.6190      2.00000
      8     -13.4054      2.00000
      9     -11.3642      2.00000
     10     -11.1145      2.00000
     11     -10.1823      2.00000
     12      -9.8592      2.00000
     13      -9.8066      2.00000
     14      -9.7477      2.00000
     15      -6.4529      2.00000
     16      -5.4535      2.00000
     17      -3.8786      2.00000
     18      -3.8461      2.00000
     19      -3.6249      2.00000
     20      -3.2959      2.00000
     21      -2.5501      2.00000
     22      -2.2290      2.00000
     23      -1.1067      2.00000
     24      -0.8528      2.00000
     25      -0.6315      2.00000
     26      -0.5728      2.00000
     27      -0.5140      2.00000
     28      -0.0358      2.00000
     29       0.0036      2.00000
     30       0.2535      2.00000
     31       0.6331      2.00000
     32       0.7216      2.00000
     33       1.2564      2.00000
     34       1.5055      2.00000
     35       1.8688      2.00000
     36       2.1108      2.00000
     37       2.2978      2.00000
     38       2.6978      2.00000
     39       3.7064      0.00000
     40       3.9360      0.00000
     41       5.0250      0.00000
     42       5.3502      0.00000
     43       5.5719      0.00000
     44       5.7052      0.00000
     45       6.0476      0.00000
     46       6.2285      0.00000
     47       6.6442      0.00000
     48       6.9841      0.00000

 k-point     8 :       0.3333    0.3333    0.3333
  band No.  band energies     occupation 
      1     -43.4155      2.00000
      2     -43.4154      2.00000
      3     -43.3933      2.00000
      4     -43.3933      2.00000
      5     -43.2397      2.00000
      6     -43.2397      2.00000
      7     -13.5500      2.00000
      8     -13.4395      2.00000
      9     -11.3773      2.00000
     10     -11.2383      2.00000
     11     -10.3247      2.00000
     12     -10.2390      2.00000
     13      -9.4817      2.00000
     14      -9.3124      2.00000
     15      -6.3226      2.00000
     16      -5.8047      2.00000
     17      -3.9726      2.00000
     18      -3.9095      2.00000
     19      -3.4077      2.00000
     20      -3.2553      2.00000
     21      -2.3379      2.00000
     22      -2.0840      2.00000
     23      -1.4578      2.00000
     24      -1.0111      2.00000
     25      -0.7032      2.00000
     26      -0.6400      2.00000
     27      -0.5085      2.00000
     28      -0.4300      2.00000
     29       0.1270      2.00000
     30       0.4668      2.00000
     31       0.7058      2.00000
     32       0.9804      2.00000
     33       1.1840      2.00000
     34       1.3614      2.00000
     35       2.0406      2.00000
     36       2.2098      2.00000
     37       2.3346      2.00000
     38       2.5151      2.00000
     39       3.9009      0.00000
     40       4.0545      0.00000
     41       5.0722      0.00000
     42       5.3674      0.00000
     43       5.5302      0.00000
     44       5.6084      0.00000
     45       5.9515      0.00000
     46       6.2527      0.00000
     47       6.5435      0.00000
     48       6.7274      0.00000


--------------------------------------------------------------------------------------------------------


 soft charge-density along one line, spin component           1
         0         1         2         3         4         5         6         7         8         9
 total charge-density along one line
 
 pseudopotential strength for first ion, spin component:           1
 30.066  37.513  -0.011   0.026  -0.000  -0.017   0.040  -0.000
 37.513  46.809  -0.014   0.032  -0.000  -0.021   0.050  -0.000
 -0.011  -0.014   6.603   0.001   0.000  10.224   0.001   0.000
  0.026   0.032   0.001   6.601   0.000   0.001  10.221   0.000
 -0.000  -0.000   0.000   0.000   6.596   0.000   0.000  10.213
 -0.017  -0.021  10.224   0.001   0.000  15.850   0.002   0.000
  0.040   0.050   0.001  10.221   0.000   0.002  15.846   0.000
 -0.000  -0.000   0.000   0.000  10.213   0.000   0.000  15.834
 total augmentation occupancy for first ion, spin component:           1
 14.465  -9.051  -0.126   0.443   0.000   0.018  -0.044   0.000
 -9.051   6.283   0.136  -0.420   0.000  -0.024   0.036   0.000
 -0.126   0.136   5.004   0.011   0.000  -1.801  -0.007   0.000
  0.443  -0.420   0.011   4.961   0.000  -0.006  -1.746   0.000
  0.000   0.000   0.000   0.000   4.955   0.000   0.000  -1.689
  0.018  -0.024  -1.801  -0.006   0.000   0.685   0.000   0.000
 -0.044   0.036  -0.007  -1.746   0.000   0.000   0.661   0.000
  0.000   0.000   0.000   0.000  -1.689   0.000   0.000   0.654


------------------------ aborting loop because EDIFF is reached ----------------------------------------


    CHARGE:  cpu time    0.0144: real time    0.0144
    FORLOC:  cpu time    0.0009: real time    0.0009
    FORNL :  cpu time    0.0335: real time    0.0337
    STRESS:  cpu time    0.0995: real time    0.1041
    FORCOR:  cpu time    0.0028: real time    0.0028
    FORHAR:  cpu time    0.0026: real time    0.0026
    MIXING:  cpu time    0.0004: real time    0.0004
    OFIELD:  cpu time    0.0001: real time    0.0001

  FORCE on cell =-STRESS in cart. coord.  units (eV):
  Direction    XX          YY          ZZ          XY          YZ          ZX
  --------------------------------------------------------------------------------------
  Alpha Z    59.19887    59.19887    59.19887
  Ewald    -746.85096  -686.28634  -846.23620     0.00000     0.00000     0.00000
  Hartree   347.02009   368.75618   294.03569    -0.00000    -0.00000    -0.00000
  E(xc)    -278.35730  -278.27108  -278.11559    -0.00000    -0.00000     0.00000
  Local    -944.97597 -1019.88986  -784.68973    -0.00000     0.00000    -0.00000
  n-local   612.84989   616.60665   607.28957     0.01285     0.01497    -0.81773
  augment   -48.65014   -47.09926   -47.37329    -0.00000     0.00000     0.00000
  Kinetic  1022.90159   991.70232  1011.42790    -0.03884    -0.06398    -1.32371
  Fock        0.00000     0.00000     0.00000     0.00000     0.00000     0.00000
  -------------------------------------------------------------------------------------
  Total      23.13609     4.71749    15.53723     0.00000     0.00000     0.00000
  in kB     111.20435    22.67477    74.68018     0.00000     0.00000     0.00000
  external pressure =       69.52 kB  Pullay stress =        0.00 kB


 VOLUME and BASIS-vectors are now :
 -----------------------------------------------------------------------------
  energy-cutoff  :      420.00
  volume of cell :      333.33
      direct lattice vectors                 reciprocal lattice vectors
     6.933612744  0.000000000  0.000000000     0.144224957  0.000000000  0.000000000
     0.000000000  6.933612744  0.000000000     0.000000000  0.144224957  0.000000000
     0.000000000  0.000000000  6.933612744     0.000000000  0.000000000  0.144224957

  length of vectors
     6.933612744  6.933612744  6.933612744     0.144224957  0.144224957  0.144224957


 FORCES acting on ions
    electron-ion (+dipol)            ewald-force                    non-local-force                 convergence-correction
 -----------------------------------------------------------------------------------------------
   0.146E-09 -.247E+02 0.891E+01   0.177E-08 0.272E+02 -.146E+02   0.000E+00 -.205E+01 0.445E+01   -.553E-10 0.962E-03 0.154E-03
   -.114E-07 0.247E+02 0.891E+01   -.232E-08 -.272E+02 -.146E+02   0.000E+00 0.205E+01 0.445E+01   0.558E-10 -.962E-03 0.154E-03
   -.434E+02 -.627E+02 0.296E+02   0.432E+02 0.613E+02 -.302E+02   -.333E+00 0.104E+01 0.151E+01   -.763E-03 0.393E-03 0.436E-03
   0.434E+02 0.627E+02 0.296E+02   -.432E+02 -.613E+02 -.302E+02   0.333E+00 -.104E+01 0.151E+01   0.763E-03 -.393E-03 0.436E-03
   -.434E+02 0.627E+02 0.296E+02   0.432E+02 -.613E+02 -.302E+02   -.333E+00 -.104E+01 0.151E+01   -.763E-03 -.393E-03 0.436E-03
   0.434E+02 -.627E+02 0.296E+02   -.432E+02 0.613E+02 -.302E+02   0.333E+00 0.104E+01 0.151E+01   0.763E-03 0.393E-03 0.436E-03
   0.546E-10 -.745E+02 -.110E+03   0.213E-08 0.761E+02 0.110E+03   0.000E+00 -.262E+01 0.378E+01   -.677E-10 0.414E-03 -.213E-02
   -.324E-07 0.745E+02 -.110E+03   -.472E-08 -.761E+02 0.110E+03   0.000E+00 0.262E+01 0.378E+01   0.678E-10 -.414E-03 -.213E-02
   0.674E-09 0.650E+02 -.193E+02   0.565E-08 -.674E+02 0.206E+02   0.000E+00 0.940E+00 -.416E+01   -.689E-10 0.958E-03 0.525E-03
   -.307E-07 -.650E+02 -.193E+02   -.608E-08 0.674E+02 0.206E+02   0.000E+00 -.940E+00 -.416E+01   0.692E-10 -.958E-03 0.525E-03
   0.105E-09 0.400E+00 0.359E+02   0.129E-08 -.162E+01 -.323E+02   0.000E+00 0.223E+01 -.420E+01   -.331E-10 -.100E-02 0.123E-02
   -.284E-07 -.400E+00 0.359E+02   -.144E-08 0.162E+01 -.323E+02   0.000E+00 -.223E+01 -.420E+01   0.333E-10 0.100E-02 0.123E-02
   0.706E+01 0.347E+02 0.123E+02   -.467E+01 -.325E+02 -.116E+02   -.121E+01 -.121E+01 -.943E+00   0.314E-03 0.197E-03 0.144E-03
   -.706E+01 -.347E+02 0.123E+02   0.467E+01 0.325E+02 -.116E+02   0.121E+01 0.121E+01 -.943E+00   -.314E-03 -.197E-03 0.144E-03
   0.706E+01 -.347E+02 0.123E+02   -.467E+01 0.325E+02 -.116E+02   -.121E+01 0.121E+01 -.943E+00   0.314E-03 -.197E-03 0.144E-03
   -.706E+01 0.347E+02 0.123E+02   0.467E+01 -.325E+02 -.116E+02   0.121E+01 -.121E+01 -.943E+00   -.314E-03 0.197E-03 0.144E-03
 -----------------------------------------------------------------------------------------------
   -.151E-06 0.105E-06 -.200E+01   0.293E-13 -.142E-13 -.533E-14   0.000E+00 0.222E-15 0.200E+01   0.860E-12 0.694E-12 0.187E-02
 
 
 POSITION                                       TOTAL-FORCE (eV/Angst)
 -----------------------------------------------------------------------------------
      0.00000      1.03753      5.75345         0.000000      0.516858     -1.209962
      3.46681      5.89608      2.28664         0.000000     -0.516858     -1.209962
      1.63299      1.23805      4.61629        -0.609941     -0.327297      0.891414
      1.83381      5.69557      1.14949         0.609941      0.327297      0.891414
      5.09980      5.69557      1.14949        -0.609941      0.327297      0.891414
      5.30062      1.23805      4.61629         0.609941     -0.327297      0.891414
      0.00000      2.44521      0.24056         0.000000     -1.015240      3.431071
      3.46681      4.48840      3.70737         0.000000      1.015240      3.431071
      0.00000      6.16245      6.60704         0.000000     -1.510218     -2.897358
      3.46681      0.77116      3.14024         0.000000      1.510218     -2.897358
      0.00000      3.99070      5.94542         0.000000      1.005033     -0.579485
      3.46681      2.94292      2.47861         0.000000     -1.005033     -0.579485
      1.29874      5.45263      4.44658         1.172209      1.041580     -0.263546
      2.16806      1.48098      0.97977        -1.172209     -1.041580     -0.263546
      4.76555      1.48098      0.97977         1.172209     -1.041580     -0.263546
      5.63487      5.45263      4.44658        -1.172209      1.041580     -0.263546
 -----------------------------------------------------------------------------------
    total drift:                               -0.000000      0.000000     -0.000104


--------------------------------------------------------------------------------------------------------



  FREE ENERGIE OF THE ION-ELECTRON SYSTEM (eV)
  ---------------------------------------------------
  free  energy   TOTEN  =       -66.74029241 eV

  energy  without entropy=      -66.74029241  energy(sigma->0) =      -66.74029241
 


--------------------------------------------------------------------------------------------------------


    POTLOK:  cpu time    0.0057: real time    0.0057


--------------------------------------------------------------------------------------------------------


     LOOP+:  cpu time    3.2133: real time    3.2744
    4ORBIT:  cpu time    0.0000: real time    0.0000
 BZINTS: Fermi energy:  3.082336; 76.000000 electrons
         Band energy:-742.078773;  BLOECHL correction:  0.000000

 total amount of memory used by VASP MPI-rank0    34150. kBytes
=======================================================================

   base      :      30000. kBytes
   nonlr-proj:       1228. kBytes
   fftplans  :        805. kBytes
   grid      :       1476. kBytes
   one-center:          3. kBytes
   wavefun   :        638. kBytes
 
  
  
 General timing and accounting informations for this job:
 ========================================================
  
                  Total CPU time used (sec):        4.229
                            User time (sec):        3.843
                          System time (sec):        0.386
                         Elapsed time (sec):        5.645
  
                   Maximum memory used (kb):      159396.
                   Average memory used (kb):           0.
  
                          Minor page faults:        21626
                          Major page faults:           83
                 Voluntary context switches:         1935
