<?xml version="1.0" encoding="ISO-8859-1"?>
<modeling>
 <generator>
  <i name="program" type="string">vasp </i>
  <i name="version" type="string">5.4.4.18Apr17-6-g9f103f2a35  </i>
  <i name="subversion" type="string">(build Feb 28 2020 14:15:47) complex            parallel </i>
  <i name="platform" type="string">LinuxIFC </i>
  <i name="date" type="string">2022 08 17 </i>
  <i name="time" type="string">22:55:10 </i>
 </generator>
 <incar>
  <i type="int" name="ISTART">     0</i>
  <i type="string" name="PREC">accurate</i>
  <i type="string" name="ALGO"> FAST</i>
  <i type="int" name="ISPIN">     1</i>
  <i type="int" name="ICHARG">     2</i>
  <i type="int" name="INIWAV">     1</i>
  <i type="int" name="NELM">   100</i>
  <i type="int" name="IBRION">     2</i>
  <i name="EDIFF">      0.00002000</i>
  <i name="EDIFFG">      0.00020000</i>
  <i type="int" name="NSW">     0</i>
  <i type="int" name="ISIF">     7</i>
  <i name="ENCUT">    420.00000000</i>
  <i type="string" name="LREAL"> AUTO</i>
  <i type="int" name="ISMEAR">    -5</i>
  <i type="logical" name="LWAVE"> F  </i>
  <i type="logical" name="LCHARG"> F  </i>
  <v type="int" name="KPOINT_BSE">    -1     0     0     0</v>
  <i type="int" name="NELM">   100</i>
 </incar>
 <structure name="primitive_cell" >
  <crystal>
   <varray name="basis" >
    <v>       7.48122033       0.00000000       0.00000000 </v>
    <v>       0.00000000       6.40838600       0.00000000 </v>
    <v>       0.00000000       0.00000000       6.01183686 </v>
   </varray>
   <i name="volume">    288.22277500 </i>
   <varray name="rec_basis" >
    <v>       0.13366803       0.00000000       0.00000000 </v>
    <v>       0.00000000       0.15604553       0.00000000 </v>
    <v>       0.00000000       0.00000000       0.16633851 </v>
   </varray>
  </crystal>
  <varray name="positions" >
   <v>       0.00000000       0.31277092       0.28007493 </v>
   <v>       0.00000000      -0.37068827       0.26001309 </v>
   <v>      -0.22295342       0.19918437       0.12826408 </v>
   <v>       0.22295342       0.19918437       0.12826408 </v>
   <v>       0.00000000       0.21526386      -0.39745970 </v>
   <v>       0.00000000      -0.35362468      -0.22944844 </v>
   <v>       0.25823660       0.18593202      -0.21584674 </v>
   <v>      -0.25823660       0.18593202      -0.21584674 </v>
   <v>       0.24176340      -0.18593202       0.28415326 </v>
   <v>      -0.24176340      -0.18593202       0.28415326 </v>
   <v>      -0.50000000       0.35362468       0.27055156 </v>
   <v>      -0.27704658      -0.19918437      -0.37173592 </v>
   <v>       0.27704658      -0.19918437      -0.37173592 </v>
   <v>      -0.50000000       0.37068827      -0.23998691 </v>
   <v>      -0.50000000      -0.21526386       0.10254030 </v>
   <v>      -0.50000000      -0.31277092      -0.21992507 </v>
  </varray>
 </structure>
 <varray name="primitive_index" >
  <v type="int" >        1 </v>
  <v type="int" >        7 </v>
  <v type="int" >        6 </v>
  <v type="int" >        3 </v>
  <v type="int" >        9 </v>
  <v type="int" >       11 </v>
  <v type="int" >       13 </v>
  <v type="int" >       16 </v>
  <v type="int" >       14 </v>
  <v type="int" >       15 </v>
  <v type="int" >       12 </v>
  <v type="int" >        5 </v>
  <v type="int" >        4 </v>
  <v type="int" >        8 </v>
  <v type="int" >       10 </v>
  <v type="int" >        2 </v>
 </varray>
 <kpoints>
  <generation param="Monkhorst-Pack">
   <v type="int" name="divisions">       3        3        3 </v>
   <v name="usershift">      0.00000000       0.00000000       0.00000000 </v>
   <v name="genvec1">      0.33333333       0.00000000       0.00000000 </v>
   <v name="genvec2">      0.00000000       0.33333333       0.00000000 </v>
   <v name="genvec3">      0.00000000       0.00000000       0.33333333 </v>
   <v name="shift">      0.00000000       0.00000000       0.00000000 </v>
  </generation>
  <varray name="kpointlist" >
   <v>       0.00000000       0.00000000       0.00000000 </v>
   <v>       0.33333333       0.00000000       0.00000000 </v>
   <v>       0.00000000       0.33333333       0.00000000 </v>
   <v>       0.33333333       0.33333333       0.00000000 </v>
   <v>       0.00000000       0.00000000       0.33333333 </v>
   <v>       0.33333333       0.00000000       0.33333333 </v>
   <v>       0.00000000       0.33333333       0.33333333 </v>
   <v>       0.33333333       0.33333333       0.33333333 </v>
  </varray>
  <varray name="weights" >
   <v>       0.03703704 </v>
   <v>       0.07407407 </v>
   <v>       0.07407407 </v>
   <v>       0.14814815 </v>
   <v>       0.07407407 </v>
   <v>       0.14814815 </v>
   <v>       0.14814815 </v>
   <v>       0.29629630 </v>
  </varray>
  <varray name="tetrahedronlist"  type="int" >
   <v type="int" >        2        1        2        4        5 </v>
   <v type="int" >        2        1        3        4        5 </v>
   <v type="int" >        2        3        4        5        7 </v>
   <v type="int" >        2        2        4        5        6 </v>
   <v type="int" >        2        4        5        6        8 </v>
   <v type="int" >        2        4        5        7        8 </v>
   <v type="int" >        2        2        2        4        6 </v>
   <v type="int" >        2        2        4        4        6 </v>
   <v type="int" >        2        4        4        6        8 </v>
   <v type="int" >        2        2        4        6        6 </v>
   <v type="int" >        2        4        6        6        8 </v>
   <v type="int" >        2        4        6        8        8 </v>
   <v type="int" >        2        1        2        3        6 </v>
   <v type="int" >        2        2        3        4        6 </v>
   <v type="int" >        2        3        4        6        8 </v>
   <v type="int" >        2        1        3        5        6 </v>
   <v type="int" >        2        3        5        6        7 </v>
   <v type="int" >        2        3        6        7        8 </v>
   <v type="int" >        2        3        4        4        7 </v>
   <v type="int" >        2        3        3        4        7 </v>
   <v type="int" >        2        3        4        7        7 </v>
   <v type="int" >        2        4        4        7        8 </v>
   <v type="int" >        2        4        7        8        8 </v>
   <v type="int" >        2        4        7        7        8 </v>
   <v type="int" >        4        4        4        4        8 </v>
   <v type="int" >        4        4        4        8        8 </v>
   <v type="int" >        4        4        8        8        8 </v>
   <v type="int" >        2        3        3        4        8 </v>
   <v type="int" >        2        3        4        4        8 </v>
   <v type="int" >        2        3        4        8        8 </v>
   <v type="int" >        2        3        3        7        8 </v>
   <v type="int" >        2        3        7        7        8 </v>
   <v type="int" >        2        3        7        8        8 </v>
   <v type="int" >        2        2        3        4        7 </v>
   <v type="int" >        2        1        2        3        7 </v>
   <v type="int" >        2        1        2        5        7 </v>
   <v type="int" >        2        2        4        7        8 </v>
   <v type="int" >        2        2        6        7        8 </v>
   <v type="int" >        2        2        5        6        7 </v>
   <v type="int" >        2        2        4        4        8 </v>
   <v type="int" >        2        2        2        4        8 </v>
   <v type="int" >        2        2        2        6        8 </v>
   <v type="int" >        2        2        4        8        8 </v>
   <v type="int" >        2        2        6        8        8 </v>
   <v type="int" >        2        2        6        6        8 </v>
   <v type="int" >        2        1        3        4        8 </v>
   <v type="int" >        2        1        2        4        8 </v>
   <v type="int" >        2        1        2        6        8 </v>
   <v type="int" >        2        1        3        7        8 </v>
   <v type="int" >        2        1        5        7        8 </v>
   <v type="int" >        2        1        5        6        8 </v>
   <v type="int" >        2        5        5        6        8 </v>
   <v type="int" >        2        5        5        7        8 </v>
   <v type="int" >        2        5        7        7        8 </v>
   <v type="int" >        2        5        6        6        8 </v>
   <v type="int" >        2        5        6        8        8 </v>
   <v type="int" >        2        5        7        8        8 </v>
   <v type="int" >        4        6        6        6        8 </v>
   <v type="int" >        4        6        6        8        8 </v>
   <v type="int" >        4        6        8        8        8 </v>
   <v type="int" >        2        5        6        6        7 </v>
   <v type="int" >        2        6        6        7        8 </v>
   <v type="int" >        2        6        7        8        8 </v>
   <v type="int" >        2        5        5        6        7 </v>
   <v type="int" >        2        5        6        7        7 </v>
   <v type="int" >        2        6        7        7        8 </v>
   <v type="int" >        4        7        7        8        8 </v>
   <v type="int" >        4        7        7        7        8 </v>
   <v type="int" >        4        7        8        8        8 </v>
   <v type="int" >        6        8        8        8        8 </v>
  </varray>
  <i name="volumeweight">      0.00617284 </i>
 </kpoints>
 <parameters>
  <separator name="general" >
   <i type="string" name="SYSTEM">unknown system</i>
   <i type="logical" name="LCOMPAT"> F  </i>
  </separator>
  <separator name="electronic" >
   <i type="string" name="PREC">accura</i>
   <i name="ENMAX">    420.00000000</i>
   <i name="ENAUG">    628.94500000</i>
   <i name="EDIFF">      0.00002000</i>
   <i type="int" name="IALGO">    68</i>
   <i type="int" name="IWAVPR">    10</i>
   <i type="int" name="NBANDS">    48</i>
   <i name="NELECT">     76.00000000</i>
   <i type="int" name="TURBO">     0</i>
   <i type="int" name="IRESTART">     0</i>
   <i type="int" name="NREBOOT">     0</i>
   <i type="int" name="NMIN">     0</i>
   <i name="EREF">      0.00000000</i>
   <separator name="electronic smearing" >
    <i type="int" name="ISMEAR">    -5</i>
    <i name="SIGMA">      0.20000000</i>
    <i name="KSPACING">      0.50000000</i>
    <i type="logical" name="KGAMMA"> T  </i>
   </separator>
   <separator name="electronic projectors" >
    <i type="logical" name="LREAL"> T  </i>
    <v name="ROPT">     -0.00025000     -0.00025000     -0.00025000</v>
    <i type="int" name="LMAXPAW">  -100</i>
    <i type="int" name="LMAXMIX">     2</i>
    <i type="logical" name="NLSPLINE"> F  </i>
   </separator>
   <separator name="electronic startup" >
    <i type="int" name="ISTART">     0</i>
    <i type="int" name="ICHARG">     2</i>
    <i type="int" name="INIWAV">     1</i>
   </separator>
   <separator name="electronic spin" >
    <i type="int" name="ISPIN">     1</i>
    <i type="logical" name="LNONCOLLINEAR"> F  </i>
    <v name="MAGMOM">      1.00000000      1.00000000      1.00000000      1.00000000      1.00000000      1.00000000      1.00000000      1.00000000      1.00000000      1.00000000      1.00000000      1.00000000      1.00000000      1.00000000      1.00000000      1.00000000</v>
    <i name="NUPDOWN">     -1.00000000</i>
    <i type="logical" name="LSORBIT"> F  </i>
    <v name="SAXIS">      0.00000000      0.00000000      1.00000000</v>
    <i type="logical" name="LSPIRAL"> F  </i>
    <v name="QSPIRAL">      0.00000000      0.00000000      0.00000000</v>
    <i type="logical" name="LZEROZ"> F  </i>
   </separator>
   <separator name="electronic exchange-correlation" >
    <i type="logical" name="LASPH"> F  </i>
    <i type="logical" name="LMETAGGA"> F  </i>
   </separator>
   <separator name="electronic convergence" >
    <i type="int" name="NELM">   100</i>
    <i type="int" name="NELMDL">    -5</i>
    <i type="int" name="NELMIN">     2</i>
    <i name="ENINI">    420.00000000</i>
    <separator name="electronic convergence detail" >
     <i type="logical" name="LDIAG"> T  </i>
     <i type="logical" name="LSUBROT"> F  </i>
     <i name="WEIMIN">      0.00000000</i>
     <i name="EBREAK">      0.00000010</i>
     <i name="DEPER">      0.30000000</i>
     <i type="int" name="NRMM">     4</i>
     <i name="TIME">      0.40000000</i>
    </separator>
   </separator>
   <separator name="electronic mixer" >
    <i name="AMIX">      0.40000000</i>
    <i name="BMIX">      1.00000000</i>
    <i name="AMIN">      0.10000000</i>
    <i name="AMIX_MAG">      1.60000000</i>
    <i name="BMIX_MAG">      1.00000000</i>
    <separator name="electronic mixer details" >
     <i type="int" name="IMIX">     4</i>
     <i type="logical" name="MIXFIRST"> F  </i>
     <i type="int" name="MAXMIX">   -45</i>
     <i name="WC">    100.00000000</i>
     <i type="int" name="INIMIX">     1</i>
     <i type="int" name="MIXPRE">     1</i>
     <i type="int" name="MREMOVE">     5</i>
    </separator>
   </separator>
   <separator name="electronic dipolcorrection" >
    <i type="logical" name="LDIPOL"> F  </i>
    <i type="logical" name="LMONO"> F  </i>
    <i type="int" name="IDIPOL">     0</i>
    <i name="EPSILON">      1.00000000</i>
    <v name="DIPOL">   -100.00000000   -100.00000000   -100.00000000</v>
    <i name="EFIELD">      0.00000000</i>
   </separator>
  </separator>
  <separator name="grids" >
   <i type="int" name="NGX">    50</i>
   <i type="int" name="NGY">    48</i>
   <i type="int" name="NGZ">    40</i>
   <i type="int" name="NGXF">   100</i>
   <i type="int" name="NGYF">    96</i>
   <i type="int" name="NGZF">    80</i>
   <i type="logical" name="ADDGRID"> F  </i>
  </separator>
  <separator name="ionic" >
   <i type="int" name="NSW">     0</i>
   <i type="int" name="IBRION">    -1</i>
   <i type="int" name="MDALGO">     0</i>
   <i type="int" name="ISIF">     7</i>
   <i name="PSTRESS">      0.00000000</i>
   <i name="EDIFFG">      0.00020000</i>
   <i type="int" name="NFREE">     1</i>
   <i name="POTIM">      0.50000000</i>
   <i name="SMASS">     -3.00000000</i>
   <i name="SCALEE">      1.00000000</i>
  </separator>
  <separator name="ionic md" >
   <i name="TEBEG">      0.00010000</i>
   <i name="TEEND">      0.00010000</i>
   <i type="int" name="NBLOCK">     1</i>
   <i type="int" name="KBLOCK">     1</i>
   <i type="int" name="NPACO">   256</i>
   <i name="APACO">     16.00000000</i>
  </separator>
  <separator name="symmetry" >
   <i type="int" name="ISYM">     2</i>
   <i name="SYMPREC">      0.00001000</i>
  </separator>
  <separator name="dos" >
   <i type="int" name="LORBIT">     0</i>
   <v name="RWIGS">     -1.00000000     -1.00000000     -1.00000000</v>
   <i type="int" name="NEDOS">   301</i>
   <i name="EMIN">     10.00000000</i>
   <i name="EMAX">    -10.00000000</i>
   <i name="EFERMI">      0.00000000</i>
  </separator>
  <separator name="writing" >
   <i type="int" name="NWRITE">     2</i>
   <i type="logical" name="LWAVE"> F  </i>
   <i type="logical" name="LDOWNSAMPLE"> F  </i>
   <i type="logical" name="LCHARG"> F  </i>
   <i type="logical" name="LPARD"> F  </i>
   <i type="logical" name="LVTOT"> F  </i>
   <i type="logical" name="LVHAR"> F  </i>
   <i type="logical" name="LELF"> F  </i>
   <i type="logical" name="LOPTICS"> F  </i>
   <v name="STM">      0.00000000      0.00000000      0.00000000      0.00000000      0.00000000      0.00000000      0.00000000</v>
  </separator>
  <separator name="performance" >
   <i type="int" name="NPAR">     4</i>
   <i type="int" name="NSIM">     4</i>
   <i type="int" name="NBLK">    -1</i>
   <i type="logical" name="LPLANE"> T  </i>
   <i type="logical" name="LSCALAPACK"> T  </i>
   <i type="logical" name="LSCAAWARE"> F  </i>
   <i type="logical" name="LSCALU"> F  </i>
   <i type="logical" name="LASYNC"> F  </i>
   <i type="logical" name="LORBITALREAL"> F  </i>
  </separator>
  <separator name="miscellaneous" >
   <i type="int" name="IDIOT">     3</i>
   <i type="int" name="ISPECIAL">     0</i>
   <i type="logical" name="LMUSIC"> F  </i>
   <v name="POMASS">     30.97400000     32.06600000      7.01000000</v>
   <v name="DARWINR">      0.00000000      0.00000000      0.00000000</v>
   <v name="DARWINV">      1.00000000      1.00000000      1.00000000</v>
   <i type="logical" name="LCORR"> T  </i>
  </separator>
  <i type="logical" name="GGA_COMPAT"> T  </i>
  <i type="logical" name="LBERRY"> F  </i>
  <i type="int" name="ICORELEVEL">     0</i>
  <i type="logical" name="LDAU"> F  </i>
  <i type="int" name="I_CONSTRAINED_M">     0</i>
  <separator name="electronic exchange-correlation" >
   <i type="string" name="GGA">--</i>
   <i type="int" name="VOSKOWN">     0</i>
   <i type="logical" name="LHFCALC"> F  </i>
   <i type="string" name="PRECFOCK"></i>
   <i type="logical" name="LSYMGRAD"> F  </i>
   <i type="logical" name="LHFONE"> F  </i>
   <i type="logical" name="LRHFCALC"> F  </i>
   <i type="logical" name="LTHOMAS"> F  </i>
   <i type="logical" name="LMODELHF"> F  </i>
   <i name="ENCUT4O">     -1.00000000</i>
   <i type="int" name="EXXOEP">     0</i>
   <i type="int" name="FOURORBIT">     0</i>
   <i name="AEXX">      0.00000000</i>
   <i name="HFALPHA">      0.00000000</i>
   <i name="MCALPHA">      0.00000000</i>
   <i name="ALDAX">      1.00000000</i>
   <i name="AGGAX">      1.00000000</i>
   <i name="ALDAC">      1.00000000</i>
   <i name="AGGAC">      1.00000000</i>
   <i type="int" name="NKREDX">     1</i>
   <i type="int" name="NKREDY">     1</i>
   <i type="int" name="NKREDZ">     1</i>
   <i type="logical" name="SHIFTRED"> F  </i>
   <i type="logical" name="ODDONLY"> F  </i>
   <i type="logical" name="EVENONLY"> F  </i>
   <i type="int" name="LMAXFOCK">     0</i>
   <i type="int" name="NMAXFOCKAE">     0</i>
   <i type="logical" name="LFOCKAEDFT"> F  </i>
   <i name="HFSCREEN">      0.00000000</i>
   <i name="HFSCREENC">      0.00000000</i>
   <i type="int" name="NBANDSGWLOW">     0</i>
  </separator>
  <separator name="vdW DFT" >
   <i type="logical" name="LUSE_VDW"> F  </i>
   <i name="Zab_VDW">     -0.84910000</i>
   <i name="PARAM1">      0.12340000</i>
   <i name="PARAM2">      1.00000000</i>
   <i name="PARAM3">      0.00000000</i>
  </separator>
  <separator name="model GW" >
   <i type="int" name="MODEL_GW">     0</i>
   <i name="MODEL_EPS0">     10.80835406</i>
   <i name="MODEL_ALPHA">      1.00000000</i>
  </separator>
  <separator name="linear response parameters" >
   <i type="logical" name="LEPSILON"> F  </i>
   <i type="logical" name="LRPA"> F  </i>
   <i type="logical" name="LNABLA"> F  </i>
   <i type="logical" name="LVEL"> F  </i>
   <i type="int" name="KINTER">     0</i>
   <i name="CSHIFT">      0.10000000</i>
   <i name="OMEGAMAX">     -1.00000000</i>
   <i name="DEG_THRESHOLD">      0.00200000</i>
   <i name="RTIME">     -0.10000000</i>
   <i name="WPLASMAI">      0.00000000</i>
   <v name="DFIELD">      0.00000000      0.00000000      0.00000000</v>
   <v name="WPLASMA">      0.00000000      0.00000000      0.00000000      0.00000000      0.00000000      0.00000000      0.00000000      0.00000000      0.00000000</v>
  </separator>
  <separator name="orbital magnetization" >
   <i type="logical" name="NUCIND"> F  </i>
   <v name="MAGPOS">      0.00000000      0.00000000      0.00000000</v>
   <i type="logical" name="LNICSALL"> T  </i>
   <i type="logical" name="ORBITALMAG"> F  </i>
   <i type="logical" name="LMAGBLOCH"> F  </i>
   <i type="logical" name="LCHIMAG"> F  </i>
   <i type="logical" name="LGAUGE"> T  </i>
   <i type="int" name="MAGATOM">     0</i>
   <v name="MAGDIPOL">      0.00000000      0.00000000      0.00000000</v>
   <v name="AVECCONST">      0.00000000      0.00000000      0.00000000</v>
  </separator>
  <separator name="response functions" >
   <i type="logical" name="LADDER"> F  </i>
   <i type="logical" name="LRPAFORCE"> F  </i>
   <i type="logical" name="LFXC"> F  </i>
   <i type="logical" name="LHARTREE"> T  </i>
   <i type="int" name="IBSE">     0</i>
   <v type="int" name="KPOINT">    -1     0     0     0</v>
   <i type="logical" name="LTCTE"> F  </i>
   <i type="logical" name="LTETE"> F  </i>
   <i type="logical" name="LTRIPLET"> F  </i>
   <i type="logical" name="LFXCEPS"> F  </i>
   <i type="logical" name="LFXHEG"> F  </i>
   <i type="int" name="NATURALO">     2</i>
   <i type="logical" name="L2ORDER"> F  </i>
   <i type="logical" name="LMP2LT"> F  </i>
   <i type="logical" name="LUSEW"> F  </i>
   <i name="ENCUTGW">     -2.00000000</i>
   <i name="ENCUTGWSOFT">     -2.00000000</i>
   <i name="ENCUTLF">     -1.00000000</i>
   <i type="int" name="LMAXMP2">    -1</i>
   <i name="SCISSOR">      0.00000000</i>
   <i type="int" name="NOMEGA">     0</i>
   <i type="int" name="NOMEGAR">     0</i>
   <i type="int" name="NBANDSGW">    -1</i>
   <i type="int" name="NBANDSO">    -1</i>
   <i type="int" name="NBANDSV">    -1</i>
   <i type="int" name="NELM">   100</i>
   <i type="int" name="NELMHF">     1</i>
   <i type="int" name="DIM">     3</i>
   <i type="int" name="ANTIRES">     0</i>
   <i name="OMEGAMAX">    -30.00000000</i>
   <i name="OMEGAMIN">    -30.00000000</i>
   <i name="OMEGATL">   -200.00000000</i>
   <i type="int" name="OMEGAGRID">   140</i>
   <i name="CSHIFT">     -0.10000000</i>
   <i type="logical" name="SELFENERGY"> F  </i>
   <i type="logical" name="LSPECTRAL"> F  </i>
   <i type="logical" name="LSPECTRALGW"> F  </i>
   <i type="logical" name="LSINGLES"> F  </i>
   <i type="logical" name="LFERMIGW"> F  </i>
   <i type="logical" name="ODDONLYGW"> F  </i>
   <i type="logical" name="EVENONLYGW"> F  </i>
   <i type="int" name="NKREDLFX">     1</i>
   <i type="int" name="NKREDLFY">     1</i>
   <i type="int" name="NKREDLFZ">     1</i>
   <i type="int" name="MAXMEM">  2800</i>
   <i type="int" name="TELESCOPE">     0</i>
   <i type="int" name="TAUPAR">     1</i>
   <i type="int" name="OMEGAPAR">    -1</i>
   <i name="LAMBDA">      1.00000000</i>
  </separator>
  <separator name="External order field" >
   <i name="OFIELD_KAPPA">      0.00000000</i>
   <v name="OFIELD_K">      0.00000000      0.00000000      0.00000000</v>
   <i name="OFIELD_Q6_NEAR">      0.00000000</i>
   <i name="OFIELD_Q6_FAR">      0.00000000</i>
   <i name="OFIELD_A">      0.00000000</i>
  </separator>
 </parameters>
 <atominfo>
  <atoms>      16 </atoms>
  <types>       3 </types>
  <array name="atoms" >
   <dimension dim="1">ion</dimension>
   <field type="string">element</field>
   <field type="int">atomtype</field>
   <set>
    <rc><c>P </c><c>   1</c></rc>
    <rc><c>P </c><c>   1</c></rc>
    <rc><c>S </c><c>   2</c></rc>
    <rc><c>S </c><c>   2</c></rc>
    <rc><c>S </c><c>   2</c></rc>
    <rc><c>S </c><c>   2</c></rc>
    <rc><c>S </c><c>   2</c></rc>
    <rc><c>S </c><c>   2</c></rc>
    <rc><c>S </c><c>   2</c></rc>
    <rc><c>S </c><c>   2</c></rc>
    <rc><c>Li</c><c>   3</c></rc>
    <rc><c>Li</c><c>   3</c></rc>
    <rc><c>Li</c><c>   3</c></rc>
    <rc><c>Li</c><c>   3</c></rc>
    <rc><c>Li</c><c>   3</c></rc>
    <rc><c>Li</c><c>   3</c></rc>
   </set>
  </array>
  <array name="atomtypes" >
   <dimension dim="1">type</dimension>
   <field type="int">atomspertype</field>
   <field type="string">element</field>
   <field>mass</field>
   <field>valence</field>
   <field type="string">pseudopotential</field>
   <set>
    <rc><c>   2</c><c>P </c><c>     30.97400000</c><c>      5.00000000</c><c>  PAW P 26Mar2009                       </c></rc>
    <rc><c>   8</c><c>S </c><c>     32.06600000</c><c>      6.00000000</c><c>  PAW S 27Mar2009                       </c></rc>
    <rc><c>   6</c><c>Li</c><c>      7.01000000</c><c>      3.00000000</c><c>  PAW Li_sv 10Sep2004                   </c></rc>
   </set>
  </array>
 </atominfo>
 <structure name="initialpos" >
  <crystal>
   <varray name="basis" >
    <v>       7.48122033       0.00000000       0.00000000 </v>
    <v>       0.00000000       6.40838600       0.00000000 </v>
    <v>       0.00000000       0.00000000       6.01183686 </v>
   </varray>
   <i name="volume">    288.22277500 </i>
   <varray name="rec_basis" >
    <v>       0.13366803       0.00000000       0.00000000 </v>
    <v>       0.00000000       0.15604553       0.00000000 </v>
    <v>       0.00000000       0.00000000       0.16633851 </v>
   </varray>
  </crystal>
  <varray name="positions" >
   <v>       0.00000000       0.31277092       0.28007493 </v>
   <v>       0.50000000       0.68722908       0.78007493 </v>
   <v>       0.22295342       0.19918437       0.12826408 </v>
   <v>       0.27704658       0.80081563       0.62826408 </v>
   <v>       0.72295342       0.80081563       0.62826408 </v>
   <v>       0.77704658       0.19918437       0.12826408 </v>
   <v>       0.00000000       0.62931173       0.26001309 </v>
   <v>       0.50000000       0.37068827       0.76001309 </v>
   <v>       0.00000000       0.21526386       0.60254030 </v>
   <v>       0.50000000       0.78473614       0.10254030 </v>
   <v>       0.00000000       0.64637532       0.77055156 </v>
   <v>       0.50000000       0.35362468       0.27055156 </v>
   <v>       0.25823660       0.18593202       0.78415326 </v>
   <v>       0.24176340       0.81406798       0.28415326 </v>
   <v>       0.75823660       0.81406798       0.28415326 </v>
   <v>       0.74176340       0.18593202       0.78415326 </v>
  </varray>
 </structure>
 <calculation>
  <scstep>
   <time name="dav">    0.21    0.26</time>
   <time name="total">    0.23    0.28</time>
   <energy>
    <i name="alphaZ">     68.46425725 </i>
    <i name="ewald">  -2701.55860368 </i>
    <i name="hartreedc">   -642.56655688 </i>
    <i name="XCdc">    182.12094663 </i>
    <i name="pawpsdc">   2494.22442938 </i>
    <i name="pawaedc">  -2541.12215007 </i>
    <i name="eentropy">      0.00000000 </i>
    <i name="bandstr">   -124.84276860 </i>
    <i name="atom">   3769.08782378 </i>
    <i name="e_fr_energy">    503.80737780 </i>
    <i name="e_wo_entrp">    503.80737780 </i>
    <i name="e_0_energy">    503.80737780 </i>
   </energy>
  </scstep>
  <scstep>
   <time name="dav">    0.19    0.19</time>
   <time name="total">    0.19    0.19</time>
   <energy>
    <i name="e_fr_energy">     -8.29643114 </i>
    <i name="e_wo_entrp">     -8.29643114 </i>
    <i name="e_0_energy">     -8.29643114 </i>
   </energy>
  </scstep>
  <scstep>
   <time name="dav">    0.21    0.22</time>
   <time name="total">    0.22    0.22</time>
   <energy>
    <i name="e_fr_energy">    -70.11473667 </i>
    <i name="e_wo_entrp">    -70.11473667 </i>
    <i name="e_0_energy">    -70.11473667 </i>
   </energy>
  </scstep>
  <scstep>
   <time name="dav">    0.27    0.27</time>
   <time name="total">    0.27    0.27</time>
   <energy>
    <i name="e_fr_energy">    -77.48932666 </i>
    <i name="e_wo_entrp">    -77.48932666 </i>
    <i name="e_0_energy">    -77.48932666 </i>
   </energy>
  </scstep>
  <scstep>
   <time name="dav">    0.22    0.22</time>
   <time name="total">    0.24    0.25</time>
   <energy>
    <i name="e_fr_energy">    -78.30939637 </i>
    <i name="e_wo_entrp">    -78.30939637 </i>
    <i name="e_0_energy">    -78.30939637 </i>
   </energy>
  </scstep>
  <scstep>
   <time name="diag">    0.05    0.06</time>
   <time name="diis">    0.10    0.10</time>
   <time name="orth">    0.01    0.01</time>
   <time name="total">    0.18    0.19</time>
   <energy>
    <i name="e_fr_energy">    -75.67071138 </i>
    <i name="e_wo_entrp">    -75.67071138 </i>
    <i name="e_0_energy">    -75.67071138 </i>
   </energy>
  </scstep>
  <scstep>
   <time name="diag">    0.05    0.05</time>
   <time name="diis">    0.11    0.11</time>
   <time name="orth">    0.01    0.01</time>
   <time name="total">    0.19    0.19</time>
   <energy>
    <i name="e_fr_energy">    -75.20103788 </i>
    <i name="e_wo_entrp">    -75.20103788 </i>
    <i name="e_0_energy">    -75.20103788 </i>
   </energy>
  </scstep>
  <scstep>
   <time name="diag">    0.05    0.05</time>
   <time name="diis">    0.11    0.11</time>
   <time name="orth">    0.01    0.01</time>
   <time name="total">    0.20    0.20</time>
   <energy>
    <i name="e_fr_energy">    -75.13427504 </i>
    <i name="e_wo_entrp">    -75.13427504 </i>
    <i name="e_0_energy">    -75.13427504 </i>
   </energy>
  </scstep>
  <scstep>
   <time name="diag">    0.05    0.05</time>
   <time name="diis">    0.13    0.13</time>
   <time name="orth">    0.01    0.01</time>
   <time name="total">    0.21    0.21</time>
   <energy>
    <i name="e_fr_energy">    -75.12739495 </i>
    <i name="e_wo_entrp">    -75.12739495 </i>
    <i name="e_0_energy">    -75.12739495 </i>
   </energy>
  </scstep>
  <scstep>
   <time name="diag">    0.06    0.06</time>
   <time name="diis">    0.15    0.15</time>
   <time name="orth">    0.01    0.01</time>
   <time name="total">    0.23    0.23</time>
   <energy>
    <i name="e_fr_energy">    -75.12790824 </i>
    <i name="e_wo_entrp">    -75.12790824 </i>
    <i name="e_0_energy">    -75.12790824 </i>
   </energy>
  </scstep>
  <scstep>
   <time name="diag">    0.05    0.05</time>
   <time name="diis">    0.14    0.14</time>
   <time name="orth">    0.01    0.01</time>
   <time name="total">    0.22    0.22</time>
   <energy>
    <i name="e_fr_energy">    -75.12834998 </i>
    <i name="e_wo_entrp">    -75.12834998 </i>
    <i name="e_0_energy">    -75.12834998 </i>
   </energy>
  </scstep>
  <scstep>
   <time name="diag">    0.05    0.05</time>
   <time name="diis">    0.13    0.13</time>
   <time name="orth">    0.01    0.01</time>
   <time name="total">    0.21    0.21</time>
   <energy>
    <i name="e_fr_energy">    -75.12855880 </i>
    <i name="e_wo_entrp">    -75.12855880 </i>
    <i name="e_0_energy">    -75.12855880 </i>
   </energy>
  </scstep>
  <scstep>
   <time name="diag">    0.05    0.05</time>
   <time name="diis">    0.10    0.10</time>
   <time name="orth">    0.01    0.01</time>
   <time name="total">    0.18    0.18</time>
   <energy>
    <i name="e_fr_energy">    -75.12866793 </i>
    <i name="e_wo_entrp">    -75.12866793 </i>
    <i name="e_0_energy">    -75.12866793 </i>
   </energy>
  </scstep>
  <scstep>
   <time name="diag">    0.05    0.05</time>
   <time name="diis">    0.11    0.11</time>
   <time name="orth">    0.01    0.01</time>
   <time name="total">    0.19    0.19</time>
   <energy>
    <i name="e_fr_energy">    -75.12871661 </i>
    <i name="e_wo_entrp">    -75.12871661 </i>
    <i name="e_0_energy">    -75.12871661 </i>
   </energy>
  </scstep>
  <scstep>
   <time name="diag">    0.05    0.05</time>
   <time name="diis">    0.10    0.10</time>
   <time name="orth">    0.01    0.01</time>
   <time name="total">    0.18    0.18</time>
   <energy>
    <i name="e_fr_energy">    -75.12874380 </i>
    <i name="e_wo_entrp">    -75.12874380 </i>
    <i name="e_0_energy">    -75.12874380 </i>
   </energy>
  </scstep>
  <scstep>
   <time name="diag">    0.05    0.05</time>
   <time name="diis">    0.09    0.09</time>
   <time name="orth">    0.01    0.01</time>
   <time name="total">    0.16    0.16</time>
   <energy>
    <i name="alphaZ">     68.46425725 </i>
    <i name="ewald">  -2701.55860368 </i>
    <i name="hartreedc">   -679.83433635 </i>
    <i name="XCdc">    186.12116840 </i>
    <i name="pawpsdc">   7520.60968843 </i>
    <i name="pawaedc">  -7570.36853931 </i>
    <i name="eentropy">      0.00000000 </i>
    <i name="bandstr">   -667.65020166 </i>
    <i name="atom">   3769.08782378 </i>
    <i name="e_fr_energy">    -75.12874315 </i>
    <i name="e_wo_entrp">    -75.12874315 </i>
    <i name="e_0_energy">    -75.12874315 </i>
   </energy>
  </scstep>
  <structure>
   <crystal>
    <varray name="basis" >
     <v>       7.48122033       0.00000000       0.00000000 </v>
     <v>       0.00000000       6.40838600       0.00000000 </v>
     <v>       0.00000000       0.00000000       6.01183686 </v>
    </varray>
    <i name="volume">    288.22277500 </i>
    <varray name="rec_basis" >
     <v>       0.13366803       0.00000000       0.00000000 </v>
     <v>       0.00000000       0.15604553       0.00000000 </v>
     <v>       0.00000000       0.00000000       0.16633851 </v>
    </varray>
   </crystal>
   <varray name="positions" >
    <v>       0.00000000       0.31277092       0.28007493 </v>
    <v>       0.50000000       0.68722908       0.78007493 </v>
    <v>       0.22295342       0.19918437       0.12826408 </v>
    <v>       0.27704658       0.80081563       0.62826408 </v>
    <v>       0.72295342       0.80081563       0.62826408 </v>
    <v>       0.77704658       0.19918437       0.12826408 </v>
    <v>       0.00000000       0.62931173       0.26001309 </v>
    <v>       0.50000000       0.37068827       0.76001309 </v>
    <v>       0.00000000       0.21526386       0.60254030 </v>
    <v>       0.50000000       0.78473614       0.10254030 </v>
    <v>       0.00000000       0.64637532       0.77055156 </v>
    <v>       0.50000000       0.35362468       0.27055156 </v>
    <v>       0.25823660       0.18593202       0.78415326 </v>
    <v>       0.24176340       0.81406798       0.28415326 </v>
    <v>       0.75823660       0.81406798       0.28415326 </v>
    <v>       0.74176340       0.18593202       0.78415326 </v>
   </varray>
  </structure>
  <varray name="forces" >
   <v>       0.00000000      -0.20418000      -0.03561225 </v>
   <v>       0.00000000       0.20418000      -0.03561225 </v>
   <v>      -0.35048266      -0.23746468       1.76816706 </v>
   <v>       0.35048266       0.23746468       1.76816706 </v>
   <v>      -0.35048266       0.23746468       1.76816706 </v>
   <v>       0.35048266      -0.23746468       1.76816706 </v>
   <v>       0.00000000      -0.54916175      -0.97780690 </v>
   <v>       0.00000000       0.54916175      -0.97780690 </v>
   <v>       0.00000000       0.66640313      -0.32927740 </v>
   <v>       0.00000000      -0.66640313      -0.32927740 </v>
   <v>       0.00000000      -0.23879423       0.05772179 </v>
   <v>       0.00000000       0.23879423       0.05772179 </v>
   <v>      -0.16572406      -0.60412847      -1.12567968 </v>
   <v>       0.16572406       0.60412847      -1.12567968 </v>
   <v>      -0.16572406       0.60412847      -1.12567968 </v>
   <v>       0.16572406      -0.60412847      -1.12567968 </v>
  </varray>
  <varray name="stress" >
   <v>      50.00561517       0.00000000       0.00000000 </v>
   <v>       0.00000000     -20.47084524       0.00000000 </v>
   <v>       0.00000000       0.00000000      44.99180412 </v>
  </varray>
  <energy>
   <i name="e_fr_energy">    -75.12874315 </i>
   <i name="e_wo_entrp">    -75.12874315 </i>
   <i name="e_0_energy">      0.00000000 </i>
  </energy>
  <time name="totalsc">    3.49    3.59</time>
  <eigenvalues>
   <array>
    <dimension dim="1">band</dimension>
    <dimension dim="2">kpoint</dimension>
    <dimension dim="3">spin</dimension>
    <field>eigene</field>
    <field>occ</field>
    <set>
     <set comment="spin 1">
      <set comment="kpoint 1">
       <r>  -41.7129    1.0000 </r>
       <r>  -41.7128    1.0000 </r>
       <r>  -40.6525    1.0000 </r>
       <r>  -40.6518    1.0000 </r>
       <r>  -40.6511    1.0000 </r>
       <r>  -40.6504    1.0000 </r>
       <r>  -12.5717    1.0000 </r>
       <r>  -12.3667    1.0000 </r>
       <r>   -9.5922    1.0000 </r>
       <r>   -9.4847    1.0000 </r>
       <r>   -9.4222    1.0000 </r>
       <r>   -9.3861    1.0000 </r>
       <r>   -9.3130    1.0000 </r>
       <r>   -9.0746    1.0000 </r>
       <r>   -5.8093    1.0000 </r>
       <r>   -4.8490    1.0000 </r>
       <r>   -2.7943    1.0000 </r>
       <r>   -2.4885    1.0000 </r>
       <r>   -2.4756    1.0000 </r>
       <r>   -2.4128    1.0000 </r>
       <r>   -2.0343    1.0000 </r>
       <r>   -1.9196    1.0000 </r>
       <r>   -0.2100    1.0000 </r>
       <r>    0.0812    1.0000 </r>
       <r>    0.1176    1.0000 </r>
       <r>    0.3039    1.0000 </r>
       <r>    0.4927    1.0000 </r>
       <r>    0.4947    1.0000 </r>
       <r>    0.7619    1.0000 </r>
       <r>    1.0296    1.0000 </r>
       <r>    1.5105    1.0000 </r>
       <r>    1.7098    1.0000 </r>
       <r>    1.7902    1.0000 </r>
       <r>    1.8173    1.0000 </r>
       <r>    1.8426    1.0000 </r>
       <r>    2.0138    1.0000 </r>
       <r>    2.2955    1.0000 </r>
       <r>    2.4017    1.0000 </r>
       <r>    5.6718    0.0000 </r>
       <r>    5.7183    0.0000 </r>
       <r>    6.3383    0.0000 </r>
       <r>    6.4300    0.0000 </r>
       <r>    6.6061    0.0000 </r>
       <r>    6.9868    0.0000 </r>
       <r>    7.3717    0.0000 </r>
       <r>    7.4020    0.0000 </r>
       <r>    7.5871    0.0000 </r>
       <r>    7.8004    0.0000 </r>
      </set>
      <set comment="kpoint 2">
       <r>  -41.7129    1.0000 </r>
       <r>  -41.7128    1.0000 </r>
       <r>  -40.6522    1.0000 </r>
       <r>  -40.6517    1.0000 </r>
       <r>  -40.6513    1.0000 </r>
       <r>  -40.6508    1.0000 </r>
       <r>  -12.5219    1.0000 </r>
       <r>  -12.4194    1.0000 </r>
       <r>   -9.6059    1.0000 </r>
       <r>   -9.4801    1.0000 </r>
       <r>   -9.4155    1.0000 </r>
       <r>   -9.3823    1.0000 </r>
       <r>   -9.2884    1.0000 </r>
       <r>   -9.1239    1.0000 </r>
       <r>   -5.5380    1.0000 </r>
       <r>   -5.0575    1.0000 </r>
       <r>   -2.8136    1.0000 </r>
       <r>   -2.7109    1.0000 </r>
       <r>   -2.4370    1.0000 </r>
       <r>   -2.3163    1.0000 </r>
       <r>   -2.0169    1.0000 </r>
       <r>   -1.9304    1.0000 </r>
       <r>   -0.2961    1.0000 </r>
       <r>   -0.1541    1.0000 </r>
       <r>    0.2988    1.0000 </r>
       <r>    0.4965    1.0000 </r>
       <r>    0.5692    1.0000 </r>
       <r>    0.8896    1.0000 </r>
       <r>    0.9414    1.0000 </r>
       <r>    1.0536    1.0000 </r>
       <r>    1.2999    1.0000 </r>
       <r>    1.4555    1.0000 </r>
       <r>    1.4738    1.0000 </r>
       <r>    1.6678    1.0000 </r>
       <r>    1.9317    1.0000 </r>
       <r>    2.0851    1.0000 </r>
       <r>    2.1718    1.0000 </r>
       <r>    2.2705    1.0000 </r>
       <r>    5.8721    0.0000 </r>
       <r>    6.0362    0.0000 </r>
       <r>    6.3625    0.0000 </r>
       <r>    6.5971    0.0000 </r>
       <r>    6.6032    0.0000 </r>
       <r>    6.7634    0.0000 </r>
       <r>    7.3364    0.0000 </r>
       <r>    7.4902    0.0000 </r>
       <r>    7.6929    0.0000 </r>
       <r>    8.1678    0.0000 </r>
      </set>
      <set comment="kpoint 3">
       <r>  -41.7129    1.0000 </r>
       <r>  -41.7128    1.0000 </r>
       <r>  -40.6525    1.0000 </r>
       <r>  -40.6518    1.0000 </r>
       <r>  -40.6511    1.0000 </r>
       <r>  -40.6504    1.0000 </r>
       <r>  -12.5134    1.0000 </r>
       <r>  -12.3985    1.0000 </r>
       <r>   -9.7006    1.0000 </r>
       <r>   -9.4519    1.0000 </r>
       <r>   -9.4504    1.0000 </r>
       <r>   -9.3486    1.0000 </r>
       <r>   -9.3115    1.0000 </r>
       <r>   -9.1359    1.0000 </r>
       <r>   -5.5487    1.0000 </r>
       <r>   -5.0547    1.0000 </r>
       <r>   -2.7326    1.0000 </r>
       <r>   -2.4115    1.0000 </r>
       <r>   -2.3174    1.0000 </r>
       <r>   -2.1990    1.0000 </r>
       <r>   -2.0597    1.0000 </r>
       <r>   -1.9712    1.0000 </r>
       <r>   -0.2536    1.0000 </r>
       <r>   -0.0194    1.0000 </r>
       <r>    0.0354    1.0000 </r>
       <r>    0.1585    1.0000 </r>
       <r>    0.2981    1.0000 </r>
       <r>    0.8855    1.0000 </r>
       <r>    0.9360    1.0000 </r>
       <r>    1.1430    1.0000 </r>
       <r>    1.1879    1.0000 </r>
       <r>    1.5433    1.0000 </r>
       <r>    1.5769    1.0000 </r>
       <r>    1.6160    1.0000 </r>
       <r>    1.8658    1.0000 </r>
       <r>    1.9072    1.0000 </r>
       <r>    2.4788    1.0000 </r>
       <r>    2.6843    1.0000 </r>
       <r>    4.8713    0.0000 </r>
       <r>    5.9475    0.0000 </r>
       <r>    6.1145    0.0000 </r>
       <r>    6.6386    0.0000 </r>
       <r>    6.8208    0.0000 </r>
       <r>    7.1116    0.0000 </r>
       <r>    7.2303    0.0000 </r>
       <r>    7.3399    0.0000 </r>
       <r>    7.8868    0.0000 </r>
       <r>    8.5324    0.0000 </r>
      </set>
      <set comment="kpoint 4">
       <r>  -41.7128    1.0000 </r>
       <r>  -41.7128    1.0000 </r>
       <r>  -40.6522    1.0000 </r>
       <r>  -40.6517    1.0000 </r>
       <r>  -40.6512    1.0000 </r>
       <r>  -40.6507    1.0000 </r>
       <r>  -12.4828    1.0000 </r>
       <r>  -12.4250    1.0000 </r>
       <r>   -9.7290    1.0000 </r>
       <r>   -9.6375    1.0000 </r>
       <r>   -9.3165    1.0000 </r>
       <r>   -9.3073    1.0000 </r>
       <r>   -9.2635    1.0000 </r>
       <r>   -9.1549    1.0000 </r>
       <r>   -5.3870    1.0000 </r>
       <r>   -5.1381    1.0000 </r>
       <r>   -2.7297    1.0000 </r>
       <r>   -2.6170    1.0000 </r>
       <r>   -2.2686    1.0000 </r>
       <r>   -2.2204    1.0000 </r>
       <r>   -1.9878    1.0000 </r>
       <r>   -1.9782    1.0000 </r>
       <r>   -0.3190    1.0000 </r>
       <r>   -0.1529    1.0000 </r>
       <r>    0.0468    1.0000 </r>
       <r>    0.4135    1.0000 </r>
       <r>    0.5158    1.0000 </r>
       <r>    0.7401    1.0000 </r>
       <r>    0.8915    1.0000 </r>
       <r>    1.1509    1.0000 </r>
       <r>    1.2276    1.0000 </r>
       <r>    1.2934    1.0000 </r>
       <r>    1.3516    1.0000 </r>
       <r>    1.6921    1.0000 </r>
       <r>    2.0217    1.0000 </r>
       <r>    2.0646    1.0000 </r>
       <r>    2.3339    1.0000 </r>
       <r>    2.5021    1.0000 </r>
       <r>    5.2341    0.0000 </r>
       <r>    5.7892    0.0000 </r>
       <r>    6.4103    0.0000 </r>
       <r>    6.8082    0.0000 </r>
       <r>    6.9390    0.0000 </r>
       <r>    7.1002    0.0000 </r>
       <r>    7.2221    0.0000 </r>
       <r>    7.3053    0.0000 </r>
       <r>    8.0400    0.0000 </r>
       <r>    8.5249    0.0000 </r>
      </set>
      <set comment="kpoint 5">
       <r>  -41.7129    1.0000 </r>
       <r>  -41.7129    1.0000 </r>
       <r>  -40.6524    1.0000 </r>
       <r>  -40.6520    1.0000 </r>
       <r>  -40.6510    1.0000 </r>
       <r>  -40.6506    1.0000 </r>
       <r>  -12.4969    1.0000 </r>
       <r>  -12.3909    1.0000 </r>
       <r>   -9.5569    1.0000 </r>
       <r>   -9.4434    1.0000 </r>
       <r>   -9.4332    1.0000 </r>
       <r>   -9.4241    1.0000 </r>
       <r>   -9.3577    1.0000 </r>
       <r>   -9.3117    1.0000 </r>
       <r>   -5.5036    1.0000 </r>
       <r>   -5.0139    1.0000 </r>
       <r>   -2.5889    1.0000 </r>
       <r>   -2.3917    1.0000 </r>
       <r>   -2.3119    1.0000 </r>
       <r>   -2.2016    1.0000 </r>
       <r>   -2.0621    1.0000 </r>
       <r>   -1.9267    1.0000 </r>
       <r>   -0.2078    1.0000 </r>
       <r>   -0.0300    1.0000 </r>
       <r>    0.0322    1.0000 </r>
       <r>    0.0992    1.0000 </r>
       <r>    0.6071    1.0000 </r>
       <r>    0.6440    1.0000 </r>
       <r>    0.7124    1.0000 </r>
       <r>    1.1230    1.0000 </r>
       <r>    1.3383    1.0000 </r>
       <r>    1.6518    1.0000 </r>
       <r>    1.6981    1.0000 </r>
       <r>    1.8680    1.0000 </r>
       <r>    1.9039    1.0000 </r>
       <r>    2.0090    1.0000 </r>
       <r>    2.0548    1.0000 </r>
       <r>    2.2282    1.0000 </r>
       <r>    5.5571    0.0000 </r>
       <r>    5.5696    0.0000 </r>
       <r>    6.1694    0.0000 </r>
       <r>    6.6798    0.0000 </r>
       <r>    6.6881    0.0000 </r>
       <r>    7.0932    0.0000 </r>
       <r>    7.2761    0.0000 </r>
       <r>    7.2913    0.0000 </r>
       <r>    7.7829    0.0000 </r>
       <r>    7.9495    0.0000 </r>
      </set>
      <set comment="kpoint 6">
       <r>  -41.7128    1.0000 </r>
       <r>  -41.7128    1.0000 </r>
       <r>  -40.6520    1.0000 </r>
       <r>  -40.6517    1.0000 </r>
       <r>  -40.6512    1.0000 </r>
       <r>  -40.6509    1.0000 </r>
       <r>  -12.4683    1.0000 </r>
       <r>  -12.4151    1.0000 </r>
       <r>   -9.6210    1.0000 </r>
       <r>   -9.5384    1.0000 </r>
       <r>   -9.4455    1.0000 </r>
       <r>   -9.4350    1.0000 </r>
       <r>   -9.2826    1.0000 </r>
       <r>   -9.2152    1.0000 </r>
       <r>   -5.3464    1.0000 </r>
       <r>   -5.1002    1.0000 </r>
       <r>   -2.6176    1.0000 </r>
       <r>   -2.5655    1.0000 </r>
       <r>   -2.1668    1.0000 </r>
       <r>   -2.1660    1.0000 </r>
       <r>   -2.0185    1.0000 </r>
       <r>   -1.9563    1.0000 </r>
       <r>   -0.2416    1.0000 </r>
       <r>   -0.1987    1.0000 </r>
       <r>    0.0778    1.0000 </r>
       <r>    0.3077    1.0000 </r>
       <r>    0.4240    1.0000 </r>
       <r>    0.4651    1.0000 </r>
       <r>    0.8402    1.0000 </r>
       <r>    0.9272    1.0000 </r>
       <r>    1.4284    1.0000 </r>
       <r>    1.4877    1.0000 </r>
       <r>    1.6335    1.0000 </r>
       <r>    1.7610    1.0000 </r>
       <r>    1.9257    1.0000 </r>
       <r>    2.0096    1.0000 </r>
       <r>    2.2768    1.0000 </r>
       <r>    2.3968    1.0000 </r>
       <r>    5.7183    0.0000 </r>
       <r>    5.7195    0.0000 </r>
       <r>    6.4868    0.0000 </r>
       <r>    6.5029    0.0000 </r>
       <r>    6.8163    0.0000 </r>
       <r>    6.9591    0.0000 </r>
       <r>    7.4537    0.0000 </r>
       <r>    7.5954    0.0000 </r>
       <r>    7.9967    0.0000 </r>
       <r>    8.3324    0.0000 </r>
      </set>
      <set comment="kpoint 7">
       <r>  -41.7129    1.0000 </r>
       <r>  -41.7129    1.0000 </r>
       <r>  -40.6523    1.0000 </r>
       <r>  -40.6520    1.0000 </r>
       <r>  -40.6510    1.0000 </r>
       <r>  -40.6506    1.0000 </r>
       <r>  -12.4576    1.0000 </r>
       <r>  -12.3979    1.0000 </r>
       <r>   -9.6827    1.0000 </r>
       <r>   -9.5481    1.0000 </r>
       <r>   -9.4254    1.0000 </r>
       <r>   -9.3745    1.0000 </r>
       <r>   -9.3419    1.0000 </r>
       <r>   -9.2678    1.0000 </r>
       <r>   -5.3548    1.0000 </r>
       <r>   -5.1001    1.0000 </r>
       <r>   -2.4247    1.0000 </r>
       <r>   -2.3232    1.0000 </r>
       <r>   -2.3070    1.0000 </r>
       <r>   -2.1765    1.0000 </r>
       <r>   -2.0183    1.0000 </r>
       <r>   -1.8567    1.0000 </r>
       <r>   -0.1045    1.0000 </r>
       <r>   -0.0879    1.0000 </r>
       <r>    0.1373    1.0000 </r>
       <r>    0.2803    1.0000 </r>
       <r>    0.4045    1.0000 </r>
       <r>    0.6798    1.0000 </r>
       <r>    0.7187    1.0000 </r>
       <r>    0.9000    1.0000 </r>
       <r>    1.0827    1.0000 </r>
       <r>    1.3303    1.0000 </r>
       <r>    1.6880    1.0000 </r>
       <r>    1.7619    1.0000 </r>
       <r>    1.8376    1.0000 </r>
       <r>    2.0503    1.0000 </r>
       <r>    2.2614    1.0000 </r>
       <r>    2.3826    1.0000 </r>
       <r>    4.9926    0.0000 </r>
       <r>    5.5245    0.0000 </r>
       <r>    6.3834    0.0000 </r>
       <r>    6.5655    0.0000 </r>
       <r>    6.7267    0.0000 </r>
       <r>    6.7673    0.0000 </r>
       <r>    7.0315    0.0000 </r>
       <r>    7.0488    0.0000 </r>
       <r>    7.9854    0.0000 </r>
       <r>    8.2777    0.0000 </r>
      </set>
      <set comment="kpoint 8">
       <r>  -41.7128    1.0000 </r>
       <r>  -41.7128    1.0000 </r>
       <r>  -40.6520    1.0000 </r>
       <r>  -40.6518    1.0000 </r>
       <r>  -40.6512    1.0000 </r>
       <r>  -40.6509    1.0000 </r>
       <r>  -12.4399    1.0000 </r>
       <r>  -12.4100    1.0000 </r>
       <r>   -9.6948    1.0000 </r>
       <r>   -9.6281    1.0000 </r>
       <r>   -9.4451    1.0000 </r>
       <r>   -9.3969    1.0000 </r>
       <r>   -9.2651    1.0000 </r>
       <r>   -9.2302    1.0000 </r>
       <r>   -5.2303    1.0000 </r>
       <r>   -5.1012    1.0000 </r>
       <r>   -2.5245    1.0000 </r>
       <r>   -2.5049    1.0000 </r>
       <r>   -2.1680    1.0000 </r>
       <r>   -2.1025    1.0000 </r>
       <r>   -1.9536    1.0000 </r>
       <r>   -1.8554    1.0000 </r>
       <r>   -0.3597    1.0000 </r>
       <r>   -0.1980    1.0000 </r>
       <r>   -0.0686    1.0000 </r>
       <r>    0.1840    1.0000 </r>
       <r>    0.5162    1.0000 </r>
       <r>    0.6945    1.0000 </r>
       <r>    0.8128    1.0000 </r>
       <r>    0.9703    1.0000 </r>
       <r>    1.1093    1.0000 </r>
       <r>    1.4081    1.0000 </r>
       <r>    1.6184    1.0000 </r>
       <r>    1.6996    1.0000 </r>
       <r>    1.7703    1.0000 </r>
       <r>    1.9682    1.0000 </r>
       <r>    2.3813    1.0000 </r>
       <r>    2.5905    1.0000 </r>
       <r>    5.2163    0.0000 </r>
       <r>    5.5835    0.0000 </r>
       <r>    6.5188    0.0000 </r>
       <r>    6.7099    0.0000 </r>
       <r>    6.8007    0.0000 </r>
       <r>    6.8666    0.0000 </r>
       <r>    7.3186    0.0000 </r>
       <r>    7.3402    0.0000 </r>
       <r>    7.9630    0.0000 </r>
       <r>    8.2949    0.0000 </r>
      </set>
     </set>
    </set>
   </array>
  </eigenvalues>
  <separator name="orbital magnetization" >
   <v name="MAGDIPOLOUT">      0.00000000      0.00000000      0.00000000</v>
  </separator>
  <dos>
   <i name="efermi">      2.80025396 </i>
   <total>
    <array>
     <dimension dim="1">gridpoints</dimension>
     <dimension dim="2">spin</dimension>
     <field>energy</field>
     <field>total</field>
     <field>integrated</field>
     <set>
      <set comment="spin 1">
       <r>   -44.2252     0.0000     0.0000 </r>
       <r>   -44.0409     0.0000     0.0000 </r>
       <r>   -43.8567     0.0000     0.0000 </r>
       <r>   -43.6725     0.0000     0.0000 </r>
       <r>   -43.4882     0.0000     0.0000 </r>
       <r>   -43.3040     0.0000     0.0000 </r>
       <r>   -43.1198     0.0000     0.0000 </r>
       <r>   -42.9355     0.0000     0.0000 </r>
       <r>   -42.7513     0.0000     0.0000 </r>
       <r>   -42.5671     0.0000     0.0000 </r>
       <r>   -42.3828     0.0000     0.0000 </r>
       <r>   -42.1986     0.0000     0.0000 </r>
       <r>   -42.0144     0.0000     0.0000 </r>
       <r>   -41.8301     0.0000     0.0000 </r>
       <r>   -41.6459     0.0000     4.0000 </r>
       <r>   -41.4617     0.0000     4.0000 </r>
       <r>   -41.2774     0.0000     4.0000 </r>
       <r>   -41.0932     0.0000     4.0000 </r>
       <r>   -40.9090     0.0000     4.0000 </r>
       <r>   -40.7247     0.0000     4.0000 </r>
       <r>   -40.5405     0.0000    12.0000 </r>
       <r>   -40.3563     0.0000    12.0000 </r>
       <r>   -40.1720     0.0000    12.0000 </r>
       <r>   -39.9878     0.0000    12.0000 </r>
       <r>   -39.8036     0.0000    12.0000 </r>
       <r>   -39.6193     0.0000    12.0000 </r>
       <r>   -39.4351     0.0000    12.0000 </r>
       <r>   -39.2509     0.0000    12.0000 </r>
       <r>   -39.0666     0.0000    12.0000 </r>
       <r>   -38.8824     0.0000    12.0000 </r>
       <r>   -38.6982     0.0000    12.0000 </r>
       <r>   -38.5139     0.0000    12.0000 </r>
       <r>   -38.3297     0.0000    12.0000 </r>
       <r>   -38.1455     0.0000    12.0000 </r>
       <r>   -37.9612     0.0000    12.0000 </r>
       <r>   -37.7770     0.0000    12.0000 </r>
       <r>   -37.5928     0.0000    12.0000 </r>
       <r>   -37.4085     0.0000    12.0000 </r>
       <r>   -37.2243     0.0000    12.0000 </r>
       <r>   -37.0401     0.0000    12.0000 </r>
       <r>   -36.8558     0.0000    12.0000 </r>
       <r>   -36.6716     0.0000    12.0000 </r>
       <r>   -36.4874     0.0000    12.0000 </r>
       <r>   -36.3031     0.0000    12.0000 </r>
       <r>   -36.1189     0.0000    12.0000 </r>
       <r>   -35.9347     0.0000    12.0000 </r>
       <r>   -35.7504     0.0000    12.0000 </r>
       <r>   -35.5662     0.0000    12.0000 </r>
       <r>   -35.3820     0.0000    12.0000 </r>
       <r>   -35.1978     0.0000    12.0000 </r>
       <r>   -35.0135     0.0000    12.0000 </r>
       <r>   -34.8293     0.0000    12.0000 </r>
       <r>   -34.6451     0.0000    12.0000 </r>
       <r>   -34.4608     0.0000    12.0000 </r>
       <r>   -34.2766     0.0000    12.0000 </r>
       <r>   -34.0924     0.0000    12.0000 </r>
       <r>   -33.9081     0.0000    12.0000 </r>
       <r>   -33.7239     0.0000    12.0000 </r>
       <r>   -33.5397     0.0000    12.0000 </r>
       <r>   -33.3554     0.0000    12.0000 </r>
       <r>   -33.1712     0.0000    12.0000 </r>
       <r>   -32.9870     0.0000    12.0000 </r>
       <r>   -32.8027     0.0000    12.0000 </r>
       <r>   -32.6185     0.0000    12.0000 </r>
       <r>   -32.4343     0.0000    12.0000 </r>
       <r>   -32.2500     0.0000    12.0000 </r>
       <r>   -32.0658     0.0000    12.0000 </r>
       <r>   -31.8816     0.0000    12.0000 </r>
       <r>   -31.6973     0.0000    12.0000 </r>
       <r>   -31.5131     0.0000    12.0000 </r>
       <r>   -31.3289     0.0000    12.0000 </r>
       <r>   -31.1446     0.0000    12.0000 </r>
       <r>   -30.9604     0.0000    12.0000 </r>
       <r>   -30.7762     0.0000    12.0000 </r>
       <r>   -30.5919     0.0000    12.0000 </r>
       <r>   -30.4077     0.0000    12.0000 </r>
       <r>   -30.2235     0.0000    12.0000 </r>
       <r>   -30.0392     0.0000    12.0000 </r>
       <r>   -29.8550     0.0000    12.0000 </r>
       <r>   -29.6708     0.0000    12.0000 </r>
       <r>   -29.4865     0.0000    12.0000 </r>
       <r>   -29.3023     0.0000    12.0000 </r>
       <r>   -29.1181     0.0000    12.0000 </r>
       <r>   -28.9338     0.0000    12.0000 </r>
       <r>   -28.7496     0.0000    12.0000 </r>
       <r>   -28.5654     0.0000    12.0000 </r>
       <r>   -28.3811     0.0000    12.0000 </r>
       <r>   -28.1969     0.0000    12.0000 </r>
       <r>   -28.0127     0.0000    12.0000 </r>
       <r>   -27.8284     0.0000    12.0000 </r>
       <r>   -27.6442     0.0000    12.0000 </r>
       <r>   -27.4600     0.0000    12.0000 </r>
       <r>   -27.2757     0.0000    12.0000 </r>
       <r>   -27.0915     0.0000    12.0000 </r>
       <r>   -26.9073     0.0000    12.0000 </r>
       <r>   -26.7230     0.0000    12.0000 </r>
       <r>   -26.5388     0.0000    12.0000 </r>
       <r>   -26.3546     0.0000    12.0000 </r>
       <r>   -26.1703     0.0000    12.0000 </r>
       <r>   -25.9861     0.0000    12.0000 </r>
       <r>   -25.8019     0.0000    12.0000 </r>
       <r>   -25.6176     0.0000    12.0000 </r>
       <r>   -25.4334     0.0000    12.0000 </r>
       <r>   -25.2492     0.0000    12.0000 </r>
       <r>   -25.0649     0.0000    12.0000 </r>
       <r>   -24.8807     0.0000    12.0000 </r>
       <r>   -24.6965     0.0000    12.0000 </r>
       <r>   -24.5123     0.0000    12.0000 </r>
       <r>   -24.3280     0.0000    12.0000 </r>
       <r>   -24.1438     0.0000    12.0000 </r>
       <r>   -23.9596     0.0000    12.0000 </r>
       <r>   -23.7753     0.0000    12.0000 </r>
       <r>   -23.5911     0.0000    12.0000 </r>
       <r>   -23.4069     0.0000    12.0000 </r>
       <r>   -23.2226     0.0000    12.0000 </r>
       <r>   -23.0384     0.0000    12.0000 </r>
       <r>   -22.8542     0.0000    12.0000 </r>
       <r>   -22.6699     0.0000    12.0000 </r>
       <r>   -22.4857     0.0000    12.0000 </r>
       <r>   -22.3015     0.0000    12.0000 </r>
       <r>   -22.1172     0.0000    12.0000 </r>
       <r>   -21.9330     0.0000    12.0000 </r>
       <r>   -21.7488     0.0000    12.0000 </r>
       <r>   -21.5645     0.0000    12.0000 </r>
       <r>   -21.3803     0.0000    12.0000 </r>
       <r>   -21.1961     0.0000    12.0000 </r>
       <r>   -21.0118     0.0000    12.0000 </r>
       <r>   -20.8276     0.0000    12.0000 </r>
       <r>   -20.6434     0.0000    12.0000 </r>
       <r>   -20.4591     0.0000    12.0000 </r>
       <r>   -20.2749     0.0000    12.0000 </r>
       <r>   -20.0907     0.0000    12.0000 </r>
       <r>   -19.9064     0.0000    12.0000 </r>
       <r>   -19.7222     0.0000    12.0000 </r>
       <r>   -19.5380     0.0000    12.0000 </r>
       <r>   -19.3537     0.0000    12.0000 </r>
       <r>   -19.1695     0.0000    12.0000 </r>
       <r>   -18.9853     0.0000    12.0000 </r>
       <r>   -18.8010     0.0000    12.0000 </r>
       <r>   -18.6168     0.0000    12.0000 </r>
       <r>   -18.4326     0.0000    12.0000 </r>
       <r>   -18.2483     0.0000    12.0000 </r>
       <r>   -18.0641     0.0000    12.0000 </r>
       <r>   -17.8799     0.0000    12.0000 </r>
       <r>   -17.6956     0.0000    12.0000 </r>
       <r>   -17.5114     0.0000    12.0000 </r>
       <r>   -17.3272     0.0000    12.0000 </r>
       <r>   -17.1429     0.0000    12.0000 </r>
       <r>   -16.9587     0.0000    12.0000 </r>
       <r>   -16.7745     0.0000    12.0000 </r>
       <r>   -16.5902     0.0000    12.0000 </r>
       <r>   -16.4060     0.0000    12.0000 </r>
       <r>   -16.2218     0.0000    12.0000 </r>
       <r>   -16.0375     0.0000    12.0000 </r>
       <r>   -15.8533     0.0000    12.0000 </r>
       <r>   -15.6691     0.0000    12.0000 </r>
       <r>   -15.4848     0.0000    12.0000 </r>
       <r>   -15.3006     0.0000    12.0000 </r>
       <r>   -15.1164     0.0000    12.0000 </r>
       <r>   -14.9321     0.0000    12.0000 </r>
       <r>   -14.7479     0.0000    12.0000 </r>
       <r>   -14.5637     0.0000    12.0000 </r>
       <r>   -14.3795     0.0000    12.0000 </r>
       <r>   -14.1952     0.0000    12.0000 </r>
       <r>   -14.0110     0.0000    12.0000 </r>
       <r>   -13.8268     0.0000    12.0000 </r>
       <r>   -13.6425     0.0000    12.0000 </r>
       <r>   -13.4583     0.0000    12.0000 </r>
       <r>   -13.2741     0.0000    12.0000 </r>
       <r>   -13.0898     0.0000    12.0000 </r>
       <r>   -12.9056     0.0000    12.0000 </r>
       <r>   -12.7214     0.0000    12.0000 </r>
       <r>   -12.5371     2.1435    12.0247 </r>
       <r>   -12.3529     0.0000    16.0000 </r>
       <r>   -12.1687     0.0000    16.0000 </r>
       <r>   -11.9844     0.0000    16.0000 </r>
       <r>   -11.8002     0.0000    16.0000 </r>
       <r>   -11.6160     0.0000    16.0000 </r>
       <r>   -11.4317     0.0000    16.0000 </r>
       <r>   -11.2475     0.0000    16.0000 </r>
       <r>   -11.0633     0.0000    16.0000 </r>
       <r>   -10.8790     0.0000    16.0000 </r>
       <r>   -10.6948     0.0000    16.0000 </r>
       <r>   -10.5106     0.0000    16.0000 </r>
       <r>   -10.3263     0.0000    16.0000 </r>
       <r>   -10.1421     0.0000    16.0000 </r>
       <r>    -9.9579     0.0000    16.0000 </r>
       <r>    -9.7736     0.0000    16.0000 </r>
       <r>    -9.5894    15.1661    18.6046 </r>
       <r>    -9.4052    32.3159    21.9545 </r>
       <r>    -9.2209    23.0977    26.8640 </r>
       <r>    -9.0367     0.0000    28.0000 </r>
       <r>    -8.8525     0.0000    28.0000 </r>
       <r>    -8.6682     0.0000    28.0000 </r>
       <r>    -8.4840     0.0000    28.0000 </r>
       <r>    -8.2998     0.0000    28.0000 </r>
       <r>    -8.1155     0.0000    28.0000 </r>
       <r>    -7.9313     0.0000    28.0000 </r>
       <r>    -7.7471     0.0000    28.0000 </r>
       <r>    -7.5628     0.0000    28.0000 </r>
       <r>    -7.3786     0.0000    28.0000 </r>
       <r>    -7.1944     0.0000    28.0000 </r>
       <r>    -7.0101     0.0000    28.0000 </r>
       <r>    -6.8259     0.0000    28.0000 </r>
       <r>    -6.6417     0.0000    28.0000 </r>
       <r>    -6.4574     0.0000    28.0000 </r>
       <r>    -6.2732     0.0000    28.0000 </r>
       <r>    -6.0890     0.0000    28.0000 </r>
       <r>    -5.9047     0.0000    28.0000 </r>
       <r>    -5.7205     0.1504    28.0045 </r>
       <r>    -5.5363     1.5923    28.1302 </r>
       <r>    -5.3520     9.2844    29.0922 </r>
       <r>    -5.1678     0.0000    30.0000 </r>
       <r>    -4.9836     1.4728    31.9339 </r>
       <r>    -4.7993     0.0000    32.0000 </r>
       <r>    -4.6151     0.0000    32.0000 </r>
       <r>    -4.4309     0.0000    32.0000 </r>
       <r>    -4.2466     0.0000    32.0000 </r>
       <r>    -4.0624     0.0000    32.0000 </r>
       <r>    -3.8782     0.0000    32.0000 </r>
       <r>    -3.6940     0.0000    32.0000 </r>
       <r>    -3.5097     0.0000    32.0000 </r>
       <r>    -3.3255     0.0000    32.0000 </r>
       <r>    -3.1413     0.0000    32.0000 </r>
       <r>    -2.9570     0.0000    32.0000 </r>
       <r>    -2.7728     1.8788    32.0333 </r>
       <r>    -2.5886    14.9100    33.3663 </r>
       <r>    -2.4043     7.1516    35.7945 </r>
       <r>    -2.2201    16.9117    37.7286 </r>
       <r>    -2.0359    16.0311    40.1954 </r>
       <r>    -1.8516     0.0000    44.0000 </r>
       <r>    -1.6674     0.0000    44.0000 </r>
       <r>    -1.4832     0.0000    44.0000 </r>
       <r>    -1.2989     0.0000    44.0000 </r>
       <r>    -1.1147     0.0000    44.0000 </r>
       <r>    -0.9305     0.0000    44.0000 </r>
       <r>    -0.7462     0.0000    44.0000 </r>
       <r>    -0.5620     0.0000    44.0000 </r>
       <r>    -0.3778     0.0000    44.0000 </r>
       <r>    -0.1935    19.4959    46.0518 </r>
       <r>    -0.0093     9.0604    48.3400 </r>
       <r>     0.1749     6.0180    50.0059 </r>
       <r>     0.3592     5.9679    51.7605 </r>
       <r>     0.5434     8.8228    53.9911 </r>
       <r>     0.7276    14.7654    55.5381 </r>
       <r>     0.9119     8.2890    57.9725 </r>
       <r>     1.0961    13.9805    59.8494 </r>
       <r>     1.2803     5.4599    61.4248 </r>
       <r>     1.4646    12.6473    63.6051 </r>
       <r>     1.6488    13.8194    65.5441 </r>
       <r>     1.8330    13.5107    68.5117 </r>
       <r>     2.0173    23.1551    71.1857 </r>
       <r>     2.2015     3.2911    72.1682 </r>
       <r>     2.3857     9.4200    74.2580 </r>
       <r>     2.5700     6.0739    75.7165 </r>
       <r>     2.7542     0.0000    76.0000 </r>
       <r>     2.9384     0.0000    76.0000 </r>
       <r>     3.1227     0.0000    76.0000 </r>
       <r>     3.3069     0.0000    76.0000 </r>
       <r>     3.4911     0.0000    76.0000 </r>
       <r>     3.6754     0.0000    76.0000 </r>
       <r>     3.8596     0.0000    76.0000 </r>
       <r>     4.0438     0.0000    76.0000 </r>
       <r>     4.2281     0.0000    76.0000 </r>
       <r>     4.4123     0.0000    76.0000 </r>
       <r>     4.5965     0.0000    76.0000 </r>
       <r>     4.7808     0.0000    76.0000 </r>
       <r>     4.9650     0.8687    76.0390 </r>
       <r>     5.1492     2.7565    76.4257 </r>
       <r>     5.3335     2.3167    77.1216 </r>
       <r>     5.5177     2.3348    77.5501 </r>
       <r>     5.7019     7.6820    79.0928 </r>
       <r>     5.8862     1.8377    79.8955 </r>
       <r>     6.0704     0.0000    80.0000 </r>
       <r>     6.2546     2.4739    80.1358 </r>
       <r>     6.4389     9.6242    81.2033 </r>
       <r>     6.6231    10.7177    82.7915 </r>
       <r>     6.8073    24.7399    85.4569 </r>
       <r>     6.9915     6.3518    87.4887 </r>
       <r>     7.1758     5.7546    88.4318 </r>
       <r>     7.3600    11.9211    90.9387 </r>
       <r>     7.5442     1.6102    91.9457 </r>
       <r>     7.7285     1.1162    92.0502 </r>
       <r>     7.9127     6.3076    92.6087 </r>
       <r>     8.0969     1.4467    94.1455 </r>
       <r>     8.2812    13.7997    94.6628 </r>
       <r>     8.4654     2.8498    95.8537 </r>
       <r>     8.6496     0.0000    96.0000 </r>
       <r>     8.8339     0.0000    96.0000 </r>
       <r>     9.0181     0.0000    96.0000 </r>
       <r>     9.2023     0.0000    96.0000 </r>
       <r>     9.3866     0.0000    96.0000 </r>
       <r>     9.5708     0.0000    96.0000 </r>
       <r>     9.7550     0.0000    96.0000 </r>
       <r>     9.9393     0.0000    96.0000 </r>
       <r>    10.1235     0.0000    96.0000 </r>
       <r>    10.3077     0.0000    96.0000 </r>
       <r>    10.4920     0.0000    96.0000 </r>
       <r>    10.6762     0.0000    96.0000 </r>
       <r>    10.8604     0.0000    96.0000 </r>
       <r>    11.0447     0.0000    96.0000 </r>
      </set>
     </set>
    </array>
   </total>
  </dos>
 </calculation>
 <structure name="finalpos" >
  <crystal>
   <varray name="basis" >
    <v>       7.48122033       0.00000000       0.00000000 </v>
    <v>       0.00000000       6.40838600       0.00000000 </v>
    <v>       0.00000000       0.00000000       6.01183686 </v>
   </varray>
   <i name="volume">    288.22277500 </i>
   <varray name="rec_basis" >
    <v>       0.13366803       0.00000000       0.00000000 </v>
    <v>       0.00000000       0.15604553       0.00000000 </v>
    <v>       0.00000000       0.00000000       0.16633851 </v>
   </varray>
  </crystal>
  <varray name="positions" >
   <v>       0.00000000       0.31277092       0.28007493 </v>
   <v>       0.50000000       0.68722908       0.78007493 </v>
   <v>       0.22295342       0.19918437       0.12826408 </v>
   <v>       0.27704658       0.80081563       0.62826408 </v>
   <v>       0.72295342       0.80081563       0.62826408 </v>
   <v>       0.77704658       0.19918437       0.12826408 </v>
   <v>       0.00000000       0.62931173       0.26001309 </v>
   <v>       0.50000000       0.37068827       0.76001309 </v>
   <v>       0.00000000       0.21526386       0.60254030 </v>
   <v>       0.50000000       0.78473614       0.10254030 </v>
   <v>       0.00000000       0.64637532       0.77055156 </v>
   <v>       0.50000000       0.35362468       0.27055156 </v>
   <v>       0.25823660       0.18593202       0.78415326 </v>
   <v>       0.24176340       0.81406798       0.28415326 </v>
   <v>       0.75823660       0.81406798       0.28415326 </v>
   <v>       0.74176340       0.18593202       0.78415326 </v>
  </varray>
 </structure>
</modeling>
