unknown system                          
           1
     6.933613    0.000000    0.000000
     0.000000    6.933613    0.000000
     0.000000    0.000000    6.933613
   P    S    Li
   2   8   6
Direct configuration=     1
   0.00000000  0.47292775  0.85384166
   0.50000000  0.52707225  0.35384166
   0.23551848  0.45841312  0.68793867
   0.26448152  0.54158688  0.18793867
   0.73551848  0.54158688  0.18793867
   0.76448152  0.45841312  0.68793867
   0.00000000  0.72206464  0.99921786
   0.50000000  0.27793536  0.49921786
   0.00000000  0.25282012  0.04027144
   0.50000000  0.74717988  0.54027144
   0.00000000  0.09063445  0.39216426
   0.50000000  0.90936555  0.89216426
   0.73542639  0.72623647  0.86433876
   0.76457361  0.27376353  0.36433876
   0.23542639  0.27376353  0.36433876
   0.26457361  0.72623647  0.86433876
