unknown system                          
           1
     7.481220    0.000000    0.000000
     0.000000    6.408386    0.000000
     0.000000    0.000000    6.011837
   P    S    Li
   2   8   6
Direct configuration=     1
   0.00000000  0.31282155  0.28045883
   0.50000000  0.68717845  0.78045883
   0.22295342  0.19923500  0.12864798
   0.27704658  0.80076500  0.62864798
   0.72295342  0.80076500  0.62864798
   0.77704658  0.19923500  0.12864798
   0.00000000  0.62936237  0.26039699
   0.50000000  0.37063763  0.76039699
   0.00000000  0.21531449  0.60292420
   0.50000000  0.78468551  0.10292420
   0.00000000  0.64661979  0.77068433
   0.50000000  0.35338021  0.27068433
   0.25829174  0.18590591  0.78443239
   0.24170826  0.81409409  0.28443239
   0.75829174  0.81409409  0.28443239
   0.74170826  0.18590591  0.78443239
