  16  16   0   0
  0.1798564E+02  0.7667166E-09  0.6222204E-09  0.6032077E-09  0.5000000E-15
  1.000000000000000E-004
  CAR 
 unknown system                          
     11.24377898    -43.56945064  301      2.19959609      1.00000000
    -43.569  0.0000E+00  0.0000E+00
    -43.387  0.0000E+00  0.0000E+00
    -43.204  0.0000E+00  0.0000E+00
    -43.021  0.0000E+00  0.0000E+00
    -42.839  0.0000E+00  0.0000E+00
    -42.656  0.0000E+00  0.0000E+00
    -42.473  0.0000E+00  0.0000E+00
    -42.290  0.0000E+00  0.0000E+00
    -42.108  0.0000E+00  0.0000E+00
    -41.925  0.0000E+00  0.0000E+00
    -41.742  0.0000E+00  0.0000E+00
    -41.560  0.0000E+00  0.0000E+00
    -41.377  0.0000E+00  0.0000E+00
    -41.194  0.0000E+00  0.0000E+00
    -41.011  0.0000E+00  0.4000E-01
    -40.829  0.0000E+00  0.4000E-01
    -40.646  0.0000E+00  0.1200E+00
    -40.463  0.0000E+00  0.1200E+00
    -40.281  0.0000E+00  0.1200E+00
    -40.098  0.0000E+00  0.1200E+00
    -39.915  0.0000E+00  0.1200E+00
    -39.733  0.0000E+00  0.1200E+00
    -39.550  0.0000E+00  0.1200E+00
    -39.367  0.0000E+00  0.1200E+00
    -39.184  0.0000E+00  0.1200E+00
    -39.002  0.0000E+00  0.1200E+00
    -38.819  0.0000E+00  0.1200E+00
    -38.636  0.0000E+00  0.1200E+00
    -38.454  0.0000E+00  0.1200E+00
    -38.271  0.0000E+00  0.1200E+00
    -38.088  0.0000E+00  0.1200E+00
    -37.905  0.0000E+00  0.1200E+00
    -37.723  0.0000E+00  0.1200E+00
    -37.540  0.0000E+00  0.1200E+00
    -37.357  0.0000E+00  0.1200E+00
    -37.175  0.0000E+00  0.1200E+00
    -36.992  0.0000E+00  0.1200E+00
    -36.809  0.0000E+00  0.1200E+00
    -36.626  0.0000E+00  0.1200E+00
    -36.444  0.0000E+00  0.1200E+00
    -36.261  0.0000E+00  0.1200E+00
    -36.078  0.0000E+00  0.1200E+00
    -35.896  0.0000E+00  0.1200E+00
    -35.713  0.0000E+00  0.1200E+00
    -35.530  0.0000E+00  0.1200E+00
    -35.347  0.0000E+00  0.1200E+00
    -35.165  0.0000E+00  0.1200E+00
    -34.982  0.0000E+00  0.1200E+00
    -34.799  0.0000E+00  0.1200E+00
    -34.617  0.0000E+00  0.1200E+00
    -34.434  0.0000E+00  0.1200E+00
    -34.251  0.0000E+00  0.1200E+00
    -34.068  0.0000E+00  0.1200E+00
    -33.886  0.0000E+00  0.1200E+00
    -33.703  0.0000E+00  0.1200E+00
    -33.520  0.0000E+00  0.1200E+00
    -33.338  0.0000E+00  0.1200E+00
    -33.155  0.0000E+00  0.1200E+00
    -32.972  0.0000E+00  0.1200E+00
    -32.790  0.0000E+00  0.1200E+00
    -32.607  0.0000E+00  0.1200E+00
    -32.424  0.0000E+00  0.1200E+00
    -32.241  0.0000E+00  0.1200E+00
    -32.059  0.0000E+00  0.1200E+00
    -31.876  0.0000E+00  0.1200E+00
    -31.693  0.0000E+00  0.1200E+00
    -31.511  0.0000E+00  0.1200E+00
    -31.328  0.0000E+00  0.1200E+00
    -31.145  0.0000E+00  0.1200E+00
    -30.962  0.0000E+00  0.1200E+00
    -30.780  0.0000E+00  0.1200E+00
    -30.597  0.0000E+00  0.1200E+00
    -30.414  0.0000E+00  0.1200E+00
    -30.232  0.0000E+00  0.1200E+00
    -30.049  0.0000E+00  0.1200E+00
    -29.866  0.0000E+00  0.1200E+00
    -29.683  0.0000E+00  0.1200E+00
    -29.501  0.0000E+00  0.1200E+00
    -29.318  0.0000E+00  0.1200E+00
    -29.135  0.0000E+00  0.1200E+00
    -28.953  0.0000E+00  0.1200E+00
    -28.770  0.0000E+00  0.1200E+00
    -28.587  0.0000E+00  0.1200E+00
    -28.404  0.0000E+00  0.1200E+00
    -28.222  0.0000E+00  0.1200E+00
    -28.039  0.0000E+00  0.1200E+00
    -27.856  0.0000E+00  0.1200E+00
    -27.674  0.0000E+00  0.1200E+00
    -27.491  0.0000E+00  0.1200E+00
    -27.308  0.0000E+00  0.1200E+00
    -27.125  0.0000E+00  0.1200E+00
    -26.943  0.0000E+00  0.1200E+00
    -26.760  0.0000E+00  0.1200E+00
    -26.577  0.0000E+00  0.1200E+00
    -26.395  0.0000E+00  0.1200E+00
    -26.212  0.0000E+00  0.1200E+00
    -26.029  0.0000E+00  0.1200E+00
    -25.847  0.0000E+00  0.1200E+00
    -25.664  0.0000E+00  0.1200E+00
    -25.481  0.0000E+00  0.1200E+00
    -25.298  0.0000E+00  0.1200E+00
    -25.116  0.0000E+00  0.1200E+00
    -24.933  0.0000E+00  0.1200E+00
    -24.750  0.0000E+00  0.1200E+00
    -24.568  0.0000E+00  0.1200E+00
    -24.385  0.0000E+00  0.1200E+00
    -24.202  0.0000E+00  0.1200E+00
    -24.019  0.0000E+00  0.1200E+00
    -23.837  0.0000E+00  0.1200E+00
    -23.654  0.0000E+00  0.1200E+00
    -23.471  0.0000E+00  0.1200E+00
    -23.289  0.0000E+00  0.1200E+00
    -23.106  0.0000E+00  0.1200E+00
    -22.923  0.0000E+00  0.1200E+00
    -22.740  0.0000E+00  0.1200E+00
    -22.558  0.0000E+00  0.1200E+00
    -22.375  0.0000E+00  0.1200E+00
    -22.192  0.0000E+00  0.1200E+00
    -22.010  0.0000E+00  0.1200E+00
    -21.827  0.0000E+00  0.1200E+00
    -21.644  0.0000E+00  0.1200E+00
    -21.461  0.0000E+00  0.1200E+00
    -21.279  0.0000E+00  0.1200E+00
    -21.096  0.0000E+00  0.1200E+00
    -20.913  0.0000E+00  0.1200E+00
    -20.731  0.0000E+00  0.1200E+00
    -20.548  0.0000E+00  0.1200E+00
    -20.365  0.0000E+00  0.1200E+00
    -20.182  0.0000E+00  0.1200E+00
    -20.000  0.0000E+00  0.1200E+00
    -19.817  0.0000E+00  0.1200E+00
    -19.634  0.0000E+00  0.1200E+00
    -19.452  0.0000E+00  0.1200E+00
    -19.269  0.0000E+00  0.1200E+00
    -19.086  0.0000E+00  0.1200E+00
    -18.903  0.0000E+00  0.1200E+00
    -18.721  0.0000E+00  0.1200E+00
    -18.538  0.0000E+00  0.1200E+00
    -18.355  0.0000E+00  0.1200E+00
    -18.173  0.0000E+00  0.1200E+00
    -17.990  0.0000E+00  0.1200E+00
    -17.807  0.0000E+00  0.1200E+00
    -17.625  0.0000E+00  0.1200E+00
    -17.442  0.0000E+00  0.1200E+00
    -17.259  0.0000E+00  0.1200E+00
    -17.076  0.0000E+00  0.1200E+00
    -16.894  0.0000E+00  0.1200E+00
    -16.711  0.0000E+00  0.1200E+00
    -16.528  0.0000E+00  0.1200E+00
    -16.346  0.0000E+00  0.1200E+00
    -16.163  0.0000E+00  0.1200E+00
    -15.980  0.0000E+00  0.1200E+00
    -15.797  0.0000E+00  0.1200E+00
    -15.615  0.0000E+00  0.1200E+00
    -15.432  0.0000E+00  0.1200E+00
    -15.249  0.0000E+00  0.1200E+00
    -15.067  0.0000E+00  0.1200E+00
    -14.884  0.0000E+00  0.1200E+00
    -14.701  0.0000E+00  0.1200E+00
    -14.518  0.0000E+00  0.1200E+00
    -14.336  0.0000E+00  0.1200E+00
    -14.153  0.0000E+00  0.1200E+00
    -13.970  0.0000E+00  0.1200E+00
    -13.788  0.0000E+00  0.1200E+00
    -13.605  0.0000E+00  0.1200E+00
    -13.422  0.0000E+00  0.1200E+00
    -13.239  0.0000E+00  0.1200E+00
    -13.057  0.0000E+00  0.1200E+00
    -12.874  0.0000E+00  0.1200E+00
    -12.691  0.0000E+00  0.1200E+00
    -12.509  0.4776E+00  0.1467E+00
    -12.326  0.0000E+00  0.1600E+00
    -12.143  0.0000E+00  0.1600E+00
    -11.960  0.0000E+00  0.1600E+00
    -11.778  0.0000E+00  0.1600E+00
    -11.595  0.0000E+00  0.1600E+00
    -11.412  0.0000E+00  0.1600E+00
    -11.230  0.0000E+00  0.1600E+00
    -11.047  0.0000E+00  0.1600E+00
    -10.864  0.0000E+00  0.1600E+00
    -10.682  0.0000E+00  0.1600E+00
    -10.499  0.0000E+00  0.1600E+00
    -10.316  0.0000E+00  0.1600E+00
    -10.133  0.0000E+00  0.1600E+00
     -9.951  0.0000E+00  0.1600E+00
     -9.768  0.0000E+00  0.1600E+00
     -9.585  0.3050E+00  0.1826E+00
     -9.403  0.3910E+00  0.2556E+00
     -9.220  0.0000E+00  0.2800E+00
     -9.037  0.0000E+00  0.2800E+00
     -8.854  0.0000E+00  0.2800E+00
     -8.672  0.0000E+00  0.2800E+00
     -8.489  0.0000E+00  0.2800E+00
     -8.306  0.0000E+00  0.2800E+00
     -8.124  0.0000E+00  0.2800E+00
     -7.941  0.0000E+00  0.2800E+00
     -7.758  0.0000E+00  0.2800E+00
     -7.575  0.0000E+00  0.2800E+00
     -7.393  0.0000E+00  0.2800E+00
     -7.210  0.0000E+00  0.2800E+00
     -7.027  0.0000E+00  0.2800E+00
     -6.845  0.0000E+00  0.2800E+00
     -6.662  0.0000E+00  0.2800E+00
     -6.479  0.0000E+00  0.2800E+00
     -6.296  0.0000E+00  0.2800E+00
     -6.114  0.0000E+00  0.2800E+00
     -5.931  0.0000E+00  0.2800E+00
     -5.748  0.0000E+00  0.2800E+00
     -5.566  0.0000E+00  0.2800E+00
     -5.383  0.6076E-01  0.2856E+00
     -5.200  0.1785E+00  0.3008E+00
     -5.017  0.0000E+00  0.3200E+00
     -4.835  0.0000E+00  0.3200E+00
     -4.652  0.0000E+00  0.3200E+00
     -4.469  0.0000E+00  0.3200E+00
     -4.287  0.0000E+00  0.3200E+00
     -4.104  0.0000E+00  0.3200E+00
     -3.921  0.0000E+00  0.3200E+00
     -3.739  0.0000E+00  0.3200E+00
     -3.556  0.0000E+00  0.3200E+00
     -3.373  0.0000E+00  0.3200E+00
     -3.190  0.0000E+00  0.3200E+00
     -3.008  0.0000E+00  0.3200E+00
     -2.825  0.0000E+00  0.3200E+00
     -2.642  0.0000E+00  0.3200E+00
     -2.460  0.1523E+00  0.3430E+00
     -2.277  0.1376E+00  0.3748E+00
     -2.094  0.1435E+00  0.4172E+00
     -1.911  0.0000E+00  0.4400E+00
     -1.729  0.0000E+00  0.4400E+00
     -1.546  0.0000E+00  0.4400E+00
     -1.363  0.0000E+00  0.4400E+00
     -1.181  0.0000E+00  0.4400E+00
     -0.998  0.0000E+00  0.4400E+00
     -0.815  0.0000E+00  0.4400E+00
     -0.632  0.0000E+00  0.4400E+00
     -0.450  0.0000E+00  0.4400E+00
     -0.267  0.5682E-01  0.4424E+00
     -0.084  0.1263E+00  0.4738E+00
      0.098  0.1422E+00  0.5030E+00
      0.281  0.0000E+00  0.5200E+00
      0.464  0.1143E+00  0.5358E+00
      0.647  0.4865E-01  0.5520E+00
      0.829  0.1086E+00  0.5649E+00
      1.012  0.2192E+00  0.5932E+00
      1.195  0.9861E-01  0.6192E+00
      1.377  0.7391E-01  0.6388E+00
      1.560  0.2010E+00  0.6599E+00
      1.743  0.1334E+00  0.6858E+00
      1.926  0.2625E+00  0.7248E+00
      2.108  0.9151E-01  0.7566E+00
      2.291  0.0000E+00  0.7600E+00
      2.474  0.0000E+00  0.7600E+00
      2.656  0.0000E+00  0.7600E+00
      2.839  0.0000E+00  0.7600E+00
      3.022  0.0000E+00  0.7600E+00
      3.205  0.0000E+00  0.7600E+00
      3.387  0.0000E+00  0.7600E+00
      3.570  0.0000E+00  0.7600E+00
      3.753  0.0000E+00  0.7600E+00
      3.935  0.0000E+00  0.7600E+00
      4.118  0.0000E+00  0.7600E+00
      4.301  0.0000E+00  0.7600E+00
      4.483  0.0000E+00  0.7600E+00
      4.666  0.0000E+00  0.7600E+00
      4.849  0.0000E+00  0.7600E+00
      5.032  0.0000E+00  0.7600E+00
      5.214  0.2544E-01  0.7658E+00
      5.397  0.6816E-01  0.7731E+00
      5.580  0.5084E-01  0.7838E+00
      5.762  0.7644E-01  0.7920E+00
      5.945  0.1665E-01  0.7988E+00
      6.128  0.1725E-01  0.8011E+00
      6.311  0.3789E-01  0.8068E+00
      6.493  0.1414E+00  0.8255E+00
      6.676  0.9435E-01  0.8482E+00
      6.859  0.7922E-01  0.8665E+00
      7.041  0.1157E+00  0.8918E+00
      7.224  0.1022E+00  0.9164E+00
      7.407  0.0000E+00  0.9200E+00
      7.590  0.0000E+00  0.9200E+00
      7.772  0.0000E+00  0.9200E+00
      7.955  0.0000E+00  0.9200E+00
      8.138  0.2731E-01  0.9223E+00
      8.320  0.2581E-01  0.9373E+00
      8.503  0.1021E+00  0.9495E+00
      8.686  0.1455E-01  0.9590E+00
      8.869  0.0000E+00  0.9600E+00
      9.051  0.0000E+00  0.9600E+00
      9.234  0.0000E+00  0.9600E+00
      9.417  0.0000E+00  0.9600E+00
      9.599  0.0000E+00  0.9600E+00
      9.782  0.0000E+00  0.9600E+00
      9.965  0.0000E+00  0.9600E+00
     10.148  0.0000E+00  0.9600E+00
     10.330  0.0000E+00  0.9600E+00
     10.513  0.0000E+00  0.9600E+00
     10.696  0.0000E+00  0.9600E+00
     10.878  0.0000E+00  0.9600E+00
     11.061  0.0000E+00  0.9600E+00
     11.244  0.0000E+00  0.9600E+00
