       N       E                     dE             d eps       ncg     rms          rms(c)
DAV:   1     0.505160200051E+03    0.50516E+03   -0.28430E+04   768   0.131E+03
DAV:   2    -0.870929905785E+01   -0.51387E+03   -0.48777E+03   904   0.310E+02
DAV:   3    -0.720777692143E+02   -0.63368E+02   -0.62896E+02  1056   0.990E+01
DAV:   4    -0.791582978188E+02   -0.70805E+01   -0.70584E+01  1416   0.313E+01
DAV:   5    -0.800154172086E+02   -0.85712E+00   -0.85695E+00  1112   0.748E+00    0.219E+01
RMM:   6    -0.776712268953E+02    0.23442E+01   -0.70823E+00   803   0.614E+00    0.148E+01
RMM:   7    -0.772484765067E+02    0.42275E+00   -0.20873E+00   838   0.378E+00    0.501E+00
RMM:   8    -0.771827430394E+02    0.65733E-01   -0.23675E-01   921   0.147E+00    0.495E-01
RMM:   9    -0.771778168884E+02    0.49262E-02   -0.27232E-02   995   0.493E-01    0.278E-01
RMM:  10    -0.771784604505E+02   -0.64356E-03   -0.77372E-03  1085   0.211E-01    0.119E-01
RMM:  11    -0.771786719562E+02   -0.21151E-03   -0.24010E-03  1075   0.112E-01    0.215E-02
RMM:  12    -0.771787435444E+02   -0.71588E-04   -0.90413E-04   951   0.679E-02    0.118E-02
RMM:  13    -0.771787642069E+02   -0.20662E-04   -0.27611E-04   622   0.449E-02    0.974E-03
RMM:  14    -0.771787665899E+02   -0.23830E-05   -0.63017E-05   613   0.388E-02
   1 F= -.77178767E+02 E0= -.77178767E+02  d E =-.771788E+02
       N       E                     dE             d eps       ncg     rms          rms(c)
DAV:   1    -0.772797532333E+02   -0.10099E+00   -0.16427E+01   800   0.194E+01    0.363E+00
RMM:   2    -0.773212416141E+02   -0.41488E-01   -0.86181E-01   960   0.399E+00    0.100E+00
RMM:   3    -0.772953358373E+02    0.25906E-01   -0.61704E-02  1134   0.107E+00    0.726E-01
RMM:   4    -0.772880164499E+02    0.73194E-02   -0.36056E-02  1020   0.644E-01    0.134E-01
RMM:   5    -0.772886935628E+02   -0.67711E-03   -0.88997E-03  1305   0.323E-01    0.968E-02
RMM:   6    -0.772888813447E+02   -0.18778E-03   -0.36539E-03  1159   0.195E-01    0.512E-02
RMM:   7    -0.772889292620E+02   -0.47917E-04   -0.15456E-03  1174   0.123E-01    0.217E-02
RMM:   8    -0.772889816495E+02   -0.52388E-04   -0.61659E-04  1122   0.816E-02    0.782E-03
RMM:   9    -0.772889856425E+02   -0.39929E-05   -0.62448E-05   636   0.550E-02
   2 F= -.77288986E+02 E0= -.77288986E+02  d E =-.110219E+00
       N       E                     dE             d eps       ncg     rms          rms(c)
DAV:   1    -0.772901469319E+02   -0.11653E-02   -0.28316E-01   928   0.254E+00    0.475E-01
RMM:   2    -0.772906930465E+02   -0.54611E-03   -0.13188E-02   960   0.514E-01    0.123E-01
RMM:   3    -0.772903871226E+02    0.30592E-03   -0.11173E-03  1134   0.143E-01    0.855E-02
RMM:   4    -0.772902807773E+02    0.10635E-03   -0.69461E-04   989   0.880E-02    0.182E-02
RMM:   5    -0.772902820559E+02   -0.12786E-05   -0.60621E-05   680   0.522E-02
   3 F= -.77290282E+02 E0= -.77290282E+02  d E =-.111515E+00
       N       E                     dE             d eps       ncg     rms          rms(c)
DAV:   1    -0.773006476520E+02   -0.10367E-01   -0.14216E+01   768   0.173E+01    0.231E+00
RMM:   2    -0.773615705800E+02   -0.60923E-01   -0.71400E-01   956   0.368E+00    0.586E-01
RMM:   3    -0.773575626741E+02    0.40079E-02   -0.67494E-02  1226   0.105E+00    0.616E-01
RMM:   4    -0.773561169709E+02    0.14457E-02   -0.22946E-02  1181   0.446E-01    0.288E-01
RMM:   5    -0.773566932147E+02   -0.57624E-03   -0.88904E-03  1270   0.272E-01    0.105E-01
RMM:   6    -0.773569685814E+02   -0.27537E-03   -0.35716E-03  1160   0.171E-01    0.239E-02
RMM:   7    -0.773570728574E+02   -0.10428E-03   -0.14967E-03  1158   0.114E-01    0.125E-02
RMM:   8    -0.773571243745E+02   -0.51517E-04   -0.60004E-04  1018   0.754E-02    0.576E-03
RMM:   9    -0.773571256102E+02   -0.12357E-05   -0.50094E-05   640   0.527E-02
   4 F= -.77357126E+02 E0= -.77357126E+02  d E =-.668436E-01
       N       E                     dE             d eps       ncg     rms          rms(c)
DAV:   1    -0.773560711957E+02    0.10532E-02   -0.70470E-01   880   0.386E+00    0.484E-01
RMM:   2    -0.773590197734E+02   -0.29486E-02   -0.34542E-02   956   0.824E-01    0.130E-01
RMM:   3    -0.773589600359E+02    0.59738E-04   -0.36961E-03  1194   0.242E-01    0.131E-01
RMM:   4    -0.773589045008E+02    0.55535E-04   -0.13880E-03  1158   0.112E-01    0.595E-02
RMM:   5    -0.773589441350E+02   -0.39634E-04   -0.53486E-04  1106   0.676E-02    0.236E-02
RMM:   6    -0.773589403059E+02    0.38290E-05    0.65344E-07   509   0.432E-02
   5 F= -.77358940E+02 E0= -.77358940E+02  d E =-.686583E-01
       N       E                     dE             d eps       ncg     rms          rms(c)
DAV:   1    -0.773668789076E+02   -0.79348E-02   -0.14925E+00   800   0.592E+00    0.738E-01
RMM:   2    -0.773698097300E+02   -0.29308E-02   -0.68678E-02   980   0.113E+00    0.270E-01
RMM:   3    -0.773694832440E+02    0.32649E-03   -0.11597E-02  1234   0.405E-01    0.176E-01
RMM:   4    -0.773694918797E+02   -0.86358E-05   -0.38213E-03  1199   0.186E-01    0.665E-02
RMM:   5    -0.773696119232E+02   -0.12004E-03   -0.16097E-03  1139   0.112E-01    0.336E-02
RMM:   6    -0.773696491782E+02   -0.37255E-04   -0.48945E-04   965   0.674E-02    0.982E-03
RMM:   7    -0.773696491060E+02    0.72254E-07   -0.53983E-05   630   0.473E-02
   6 F= -.77369649E+02 E0= -.77369649E+02  d E =-.107088E-01
       N       E                     dE             d eps       ncg     rms          rms(c)
DAV:   1    -0.773678471226E+02    0.18021E-02   -0.21948E+00   768   0.720E+00    0.904E-01
RMM:   2    -0.773721269733E+02   -0.42799E-02   -0.10071E-01   984   0.138E+00    0.327E-01
RMM:   3    -0.773717870183E+02    0.33996E-03   -0.17360E-02  1232   0.493E-01    0.213E-01
RMM:   4    -0.773718088837E+02   -0.21865E-04   -0.57337E-03  1217   0.231E-01    0.816E-02
RMM:   5    -0.773719898507E+02   -0.18097E-03   -0.24177E-03  1183   0.139E-01    0.424E-02
RMM:   6    -0.773720550966E+02   -0.65246E-04   -0.82455E-04  1107   0.831E-02    0.146E-02
RMM:   7    -0.773720651976E+02   -0.10101E-04   -0.17780E-04   761   0.545E-02
   7 F= -.77372065E+02 E0= -.77372065E+02  d E =-.131249E-01
       N       E                     dE             d eps       ncg     rms          rms(c)
DAV:   1    -0.773752030093E+02   -0.31479E-02   -0.45116E-01   864   0.336E+00    0.261E-01
RMM:   2    -0.773766757903E+02   -0.14728E-02   -0.17667E-02  1032   0.592E-01    0.828E-02
RMM:   3    -0.773768378482E+02   -0.16206E-03   -0.28737E-03  1235   0.207E-01    0.726E-02
RMM:   4    -0.773768613856E+02   -0.23537E-04   -0.10696E-03  1153   0.101E-01    0.276E-02
RMM:   5    -0.773768840243E+02   -0.22639E-04   -0.30720E-04   860   0.646E-02    0.982E-03
RMM:   6    -0.773768881447E+02   -0.41204E-05   -0.10051E-04   710   0.504E-02
   8 F= -.77376888E+02 E0= -.77376888E+02  d E =-.482295E-02
       N       E                     dE             d eps       ncg     rms          rms(c)
DAV:   1    -0.773708347843E+02    0.60492E-02   -0.40769E+00   768   0.101E+01    0.794E-01
RMM:   2    -0.773837834637E+02   -0.12949E-01   -0.15485E-01  1019   0.176E+00    0.248E-01
RMM:   3    -0.773851166938E+02   -0.13332E-02   -0.24461E-02  1257   0.603E-01    0.227E-01
RMM:   4    -0.773852054104E+02   -0.88717E-04   -0.85789E-03  1209   0.281E-01    0.862E-02
RMM:   5    -0.773854722750E+02   -0.26686E-03   -0.33767E-03  1229   0.174E-01    0.322E-02
RMM:   6    -0.773855635163E+02   -0.91241E-04   -0.13276E-03  1193   0.111E-01    0.779E-03
RMM:   7    -0.773856044488E+02   -0.40933E-04   -0.47172E-04   982   0.729E-02    0.687E-03
RMM:   8    -0.773856086257E+02   -0.41769E-05   -0.82044E-05   663   0.541E-02
   9 F= -.77385609E+02 E0= -.77385609E+02  d E =-.135434E-01
       N       E                     dE             d eps       ncg     rms          rms(c)
DAV:   1    -0.773831662461E+02    0.24382E-02   -0.96693E-01   768   0.491E+00    0.384E-01
RMM:   2    -0.773862764724E+02   -0.31102E-02   -0.37031E-02  1024   0.863E-01    0.120E-01
RMM:   3    -0.773866240799E+02   -0.34761E-03   -0.60531E-03  1239   0.301E-01    0.108E-01
RMM:   4    -0.773866623095E+02   -0.38230E-04   -0.22601E-03  1199   0.146E-01    0.396E-02
RMM:   5    -0.773867355094E+02   -0.73200E-04   -0.90673E-04  1163   0.921E-02    0.156E-02
RMM:   6    -0.773867465450E+02   -0.11036E-04   -0.20647E-04   778   0.595E-02    0.417E-03
RMM:   7    -0.773867557732E+02   -0.92282E-05   -0.13876E-04   826   0.510E-02
  10 F= -.77386756E+02 E0= -.77386756E+02  d E =-.146906E-01
       N       E                     dE             d eps       ncg     rms          rms(c)
DAV:   1    -0.773909995045E+02   -0.42530E-02   -0.11330E-01   944   0.151E+00    0.299E-01
RMM:   2    -0.773905911072E+02    0.40840E-03   -0.66454E-03   973   0.325E-01    0.130E-01
RMM:   3    -0.773903625929E+02    0.22851E-03   -0.12254E-03  1061   0.127E-01    0.695E-02
RMM:   4    -0.773903416014E+02    0.20992E-04   -0.31068E-04  1004   0.607E-02    0.323E-02
RMM:   5    -0.773903332924E+02    0.83090E-05    0.17521E-05   475   0.381E-02
  11 F= -.77390333E+02 E0= -.77390333E+02  d E =-.357752E-02
       N       E                     dE             d eps       ncg     rms          rms(c)
DAV:   1    -0.773955679526E+02   -0.52264E-02   -0.47860E-01   776   0.311E+00    0.618E-01
RMM:   2    -0.773939254925E+02    0.16425E-02   -0.29472E-02   956   0.692E-01    0.267E-01
RMM:   3    -0.773929674958E+02    0.95800E-03   -0.50689E-03  1083   0.257E-01    0.148E-01
RMM:   4    -0.773928714463E+02    0.96050E-04   -0.12782E-03  1119   0.118E-01    0.679E-02
RMM:   5    -0.773928790941E+02   -0.76478E-05   -0.36943E-04  1045   0.669E-02    0.226E-02
RMM:   6    -0.773928733818E+02    0.57124E-05    0.21697E-06   500   0.412E-02
  12 F= -.77392873E+02 E0= -.77392873E+02  d E =-.611761E-02
       N       E                     dE             d eps       ncg     rms          rms(c)
DAV:   1    -0.773943912868E+02   -0.15122E-02   -0.26098E-01   768   0.231E+00    0.304E-01
RMM:   2    -0.773953923789E+02   -0.10011E-02   -0.12394E-02   957   0.483E-01    0.830E-02
RMM:   3    -0.773952838433E+02    0.10854E-03   -0.97542E-04  1158   0.134E-01    0.855E-02
RMM:   4    -0.773952544543E+02    0.29389E-04   -0.39072E-04  1021   0.588E-02    0.363E-02
RMM:   5    -0.773952468831E+02    0.75712E-05    0.22440E-05   475   0.378E-02
  13 F= -.77395247E+02 E0= -.77395247E+02  d E =-.237350E-02
       N       E                     dE             d eps       ncg     rms          rms(c)
DAV:   1    -0.773945509624E+02    0.70349E-03   -0.39521E-01   768   0.285E+00    0.375E-01
RMM:   2    -0.773960748538E+02   -0.15239E-02   -0.18964E-02   957   0.596E-01    0.977E-02
RMM:   3    -0.773959236892E+02    0.15116E-03   -0.15983E-03  1193   0.170E-01    0.101E-01
RMM:   4    -0.773958844992E+02    0.39190E-04   -0.60592E-04  1074   0.727E-02    0.447E-02
RMM:   5    -0.773958809602E+02    0.35390E-05   -0.40006E-05   583   0.463E-02
  14 F= -.77395881E+02 E0= -.77395881E+02  d E =-.300758E-02
       N       E                     dE             d eps       ncg     rms          rms(c)
DAV:   1    -0.773964129213E+02   -0.52842E-03   -0.69908E-02   880   0.120E+00    0.125E-01
RMM:   2    -0.773965372652E+02   -0.12434E-03   -0.24025E-03   987   0.207E-01    0.467E-02
RMM:   3    -0.773965322373E+02    0.50280E-05   -0.41317E-04  1092   0.773E-02    0.266E-02
RMM:   4    -0.773965202606E+02    0.11977E-04    0.10318E-05   490   0.416E-02
  15 F= -.77396520E+02 E0= -.77396520E+02  d E =-.639300E-03
       N       E                     dE             d eps       ncg     rms          rms(c)
DAV:   1    -0.773956938457E+02    0.83839E-03   -0.62761E-01   768   0.360E+00    0.365E-01
RMM:   2    -0.773967997361E+02   -0.11059E-02   -0.20526E-02   989   0.610E-01    0.137E-01
RMM:   3    -0.773967435712E+02    0.56165E-04   -0.32719E-03  1223   0.216E-01    0.793E-02
RMM:   4    -0.773967480083E+02   -0.44370E-05   -0.10588E-03  1142   0.104E-01    0.265E-02
RMM:   5    -0.773967715915E+02   -0.23583E-04   -0.33399E-04   829   0.644E-02    0.124E-02
RMM:   6    -0.773967742254E+02   -0.26339E-05   -0.76002E-05   661   0.483E-02
  16 F= -.77396774E+02 E0= -.77396774E+02  d E =-.893265E-03
       N       E                     dE             d eps       ncg     rms          rms(c)
DAV:   1    -0.773969182813E+02   -0.14669E-03   -0.69231E-02   768   0.119E+00    0.124E-01
RMM:   2    -0.773970246517E+02   -0.10637E-03   -0.21174E-03   960   0.194E-01    0.464E-02
RMM:   3    -0.773969913900E+02    0.33262E-04   -0.19616E-04   939   0.575E-02    0.269E-02
RMM:   4    -0.773969820780E+02    0.93120E-05   -0.12634E-05   506   0.273E-02
  17 F= -.77396982E+02 E0= -.77396982E+02  d E =-.110112E-02
       N       E                     dE             d eps       ncg     rms          rms(c)
DAV:   1    -0.773972999757E+02   -0.30859E-03   -0.29379E-02   800   0.811E-01    0.425E-02
RMM:   2    -0.773973608642E+02   -0.60889E-04   -0.70583E-04  1003   0.118E-01    0.150E-02
RMM:   3    -0.773973580221E+02    0.28421E-05   -0.99351E-06   498   0.367E-02
  18 F= -.77397358E+02 E0= -.77397358E+02  d E =-.375944E-03
       N       E                     dE             d eps       ncg     rms          rms(c)
DAV:   1    -0.773974554235E+02   -0.94559E-04   -0.26239E-01   768   0.243E+00    0.127E-01
RMM:   2    -0.773980879128E+02   -0.63249E-03   -0.71964E-03  1013   0.370E-01    0.502E-02
RMM:   3    -0.773981638578E+02   -0.75945E-04   -0.11151E-03  1190   0.128E-01    0.389E-02
RMM:   4    -0.773981758078E+02   -0.11950E-04   -0.34046E-04  1074   0.616E-02    0.136E-02
RMM:   5    -0.773981731394E+02    0.26684E-05   -0.34148E-06   504   0.421E-02
  19 F= -.77398173E+02 E0= -.77398173E+02  d E =-.119106E-02
       N       E                     dE             d eps       ncg     rms          rms(c)
DAV:   1    -0.773955562431E+02    0.26196E-02   -0.10452E+00   768   0.485E+00    0.253E-01
RMM:   2    -0.773980303551E+02   -0.24741E-02   -0.28589E-02  1016   0.739E-01    0.978E-02
RMM:   3    -0.773983537517E+02   -0.32340E-03   -0.44952E-03  1261   0.253E-01    0.760E-02
RMM:   4    -0.773984053220E+02   -0.51570E-04   -0.13392E-03  1196   0.115E-01    0.262E-02
RMM:   5    -0.773984448668E+02   -0.39545E-04   -0.48335E-04   971   0.728E-02    0.890E-03
RMM:   6    -0.773984457076E+02   -0.84070E-06   -0.58291E-05   643   0.531E-02
  20 F= -.77398446E+02 E0= -.77398446E+02  d E =-.146363E-02
       N       E                     dE             d eps       ncg     rms          rms(c)
DAV:   1    -0.773991974100E+02   -0.75254E-03   -0.25889E-02   904   0.741E-01    0.119E-01
RMM:   2    -0.773991881238E+02    0.92863E-05   -0.13836E-03  1004   0.162E-01    0.533E-02
RMM:   3    -0.773991742507E+02    0.13873E-04   -0.31562E-04  1083   0.648E-02    0.327E-02
RMM:   4    -0.773991583238E+02    0.15927E-04    0.49509E-06   613   0.408E-02
  21 F= -.77399158E+02 E0= -.77399158E+02  d E =-.712616E-03
       N       E                     dE             d eps       ncg     rms          rms(c)
DAV:   1    -0.773996484476E+02   -0.47420E-03   -0.21833E-01   768   0.217E+00    0.343E-01
RMM:   2    -0.773996309482E+02    0.17499E-04   -0.12427E-02   963   0.456E-01    0.153E-01
RMM:   3    -0.773993297874E+02    0.30116E-03   -0.19972E-03  1190   0.162E-01    0.952E-02
RMM:   4    -0.773992700487E+02    0.59739E-04   -0.68147E-04  1058   0.852E-02    0.267E-02
RMM:   5    -0.773992689711E+02    0.10776E-05   -0.72226E-05   619   0.518E-02
  22 F= -.77399269E+02 E0= -.77399269E+02  d E =-.823264E-03
       N       E                     dE             d eps       ncg     rms          rms(c)
DAV:   1    -0.773997158604E+02   -0.44581E-03   -0.36734E-02   784   0.882E-01    0.139E-01
RMM:   2    -0.773997006124E+02    0.15248E-04   -0.20062E-03   899   0.180E-01    0.629E-02
RMM:   3    -0.773996177449E+02    0.82867E-04   -0.17775E-04   989   0.527E-02    0.375E-02
RMM:   4    -0.773996030978E+02    0.14647E-04   -0.64338E-05   557   0.278E-02
  23 F= -.77399603E+02 E0= -.77399603E+02  d E =-.115739E-02
       N       E                     dE             d eps       ncg     rms          rms(c)
DAV:   1    -0.774001567111E+02   -0.53897E-03   -0.54523E-02   768   0.109E+00    0.185E-01
RMM:   2    -0.774001128527E+02    0.43858E-04   -0.28626E-03   969   0.227E-01    0.747E-02
RMM:   3    -0.774000193605E+02    0.93492E-04   -0.39211E-04  1078   0.780E-02    0.444E-02
RMM:   4    -0.774000001855E+02    0.19175E-04   -0.14176E-04   850   0.430E-02
  24 F= -.77400000E+02 E0= -.77400000E+02  d E =-.397088E-03
       N       E                     dE             d eps       ncg     rms          rms(c)
DAV:   1    -0.774000305162E+02   -0.11156E-04   -0.63638E-03   896   0.375E-01    0.611E-02
RMM:   2    -0.774000322903E+02   -0.17741E-05   -0.41237E-04   965   0.837E-02    0.268E-02
RMM:   3    -0.774000153202E+02    0.16970E-04    0.41135E-06   508   0.362E-02
  25 F= -.77400015E+02 E0= -.77400015E+02  d E =-.412222E-03
       N       E                     dE             d eps       ncg     rms          rms(c)
DAV:   1    -0.774001552995E+02   -0.12301E-03   -0.16902E-02   768   0.665E-01    0.994E-02
RMM:   2    -0.774001612651E+02   -0.59656E-05   -0.71811E-04   999   0.120E-01    0.327E-02
RMM:   3    -0.774001569475E+02    0.43176E-05   -0.17726E-04   965   0.522E-02
  26 F= -.77400157E+02 E0= -.77400157E+02  d E =-.141627E-03
       N       E                     dE             d eps       ncg     rms          rms(c)
DAV:   1    -0.774001870678E+02   -0.25803E-04   -0.74140E-03   800   0.437E-01    0.679E-02
RMM:   2    -0.774001860189E+02    0.10489E-05   -0.35976E-04  1005   0.832E-02    0.239E-02
RMM:   3    -0.774001724394E+02    0.13579E-04    0.77063E-06   488   0.401E-02
  27 F= -.77400172E+02 E0= -.77400172E+02  d E =-.157119E-03
