 vasp.5.4.4.18Apr17-6-g9f103f2a35 (build Feb 28 2020 14:15:47) complex          
  
 executed on             LinuxIFC date 2022.08.06  21:59:00
 running on   64 total cores
 distrk:  each k-point on   64 cores,    1 groups
 distr:  one band on NCORES_PER_BAND=  16 cores,    4 groups


--------------------------------------------------------------------------------------------------------


 INCAR:
 POTCAR:    PAW P 26Mar2009                       
 POTCAR:    PAW S 27Mar2009                       
 POTCAR:    PAW Li_sv 10Sep2004                   
 POTCAR:    PAW P 26Mar2009                       
   VRHFIN =P : s2p3                                                             
   LEXCH  = CA                                                                  
   EATOM  =   176.5121 eV,   12.9733 Ry                                         
                                                                                
   TITEL  = PAW P 26Mar2009                                                     
   LULTRA =        F    use ultrasoft PP ?                                      
   IUNSCR =        1    unscreen: 0-lin 1-nonlin 2-no                           
   RPACOR =    1.500    partial core radius                                     
   POMASS =   30.974; ZVAL   =    5.000    mass and valenz                      
   RCORE  =    1.900    outmost cutoff radius                                   
   RWIGS  =    2.330; RWIGS  =    1.233    wigner-seitz radius (au A)           
   ENMAX  =  255.155; ENMIN  =  191.366 eV                                      
   ICORE  =        2    local potential                                         
   LCOR   =        T    correct aug charges                                     
   LPAW   =        T    paw PP                                                  
   EAUG   =  342.924                                                            
   DEXC   =    0.000                                                            
   RMAX   =    1.935    core radius for proj-oper                               
   RAUG   =    1.300    factor for augmentation sphere                          
   RDEP   =    1.931    radius for radial grids                                 
   RDEPT  =    1.780    core radius for aug-charge                              
                                                                                
   Atomic configuration                                                         
    6 entries                                                                   
     n  l   j            E        occ.                                          
     1  0  0.50     -2072.7761   2.0000                                         
     2  0  0.50      -172.9483   2.0000                                         
     2  1  1.50      -124.4644   6.0000                                         
     3  0  0.50       -14.0086   2.0000                                         
     3  1  0.50        -5.6037   3.0000                                         
     3  2  1.50        -6.8029   0.0000                                         
   Description                                                                  
     l       E           TYP  RCUT    TYP  RCUT                                 
     0    -14.0086211     23  1.900                                             
     0    -11.8189335     23  1.900                                             
     1     -5.6037292     23  1.900                                             
     1     -0.3527308     23  1.900                                             
     2     -6.8029130     23  1.900                                             
  local pseudopotential read in
  partial core-charges read in
  partial kinetic energy density read in
  atomic valenz-charges read in
  non local Contribution for L=           0  read in
    real space projection operators read in
  non local Contribution for L=           0  read in
    real space projection operators read in
  non local Contribution for L=           1  read in
    real space projection operators read in
  non local Contribution for L=           1  read in
    real space projection operators read in
    PAW grid and wavefunctions read in
 
   number of l-projection  operators is LMAX  =           4
   number of lm-projection operators is LMMAX =           8
 
 POTCAR:    PAW S 27Mar2009                       
   VRHFIN =S : s2p4                                                             
   LEXCH  = CA                                                                  
   EATOM  =   277.3745 eV,   20.3864 Ry                                         
                                                                                
   TITEL  = PAW S 27Mar2009                                                     
   LULTRA =        F    use ultrasoft PP ?                                      
   IUNSCR =        1    unscreen: 0-lin 1-nonlin 2-no                           
   RPACOR =    1.500    partial core radius                                     
   POMASS =   32.066; ZVAL   =    6.000    mass and valenz                      
   RCORE  =    1.900    outmost cutoff radius                                   
   RWIGS  =    2.200; RWIGS  =    1.164    wigner-seitz radius (au A)           
   ENMAX  =  258.602; ENMIN  =  193.952 eV                                      
   ICORE  =        2    local potential                                         
   LCOR   =        T    correct aug charges                                     
   LPAW   =        T    paw PP                                                  
   EAUG   =  335.092                                                            
   DEXC   =    0.000                                                            
   RMAX   =    1.942    core radius for proj-oper                               
   RAUG   =    1.300    factor for augmentation sphere                          
   RDEP   =    1.954    radius for radial grids                                 
   RDEPT  =    1.744    core radius for aug-charge                              
                                                                                
   Atomic configuration                                                         
    6 entries                                                                   
     n  l   j            E        occ.                                          
     1  0  0.50     -2393.1495   2.0000                                         
     2  0  0.50      -210.5411   2.0000                                         
     2  1  1.50      -156.4410   6.0000                                         
     3  0  0.50       -17.2664   2.0000                                         
     3  1  0.50        -7.1129   4.0000                                         
     3  2  1.50        -8.1635   0.0000                                         
   Description                                                                  
     l       E           TYP  RCUT    TYP  RCUT                                 
     0    -17.2664422     23  1.900                                             
     0    -15.8420823     23  1.900                                             
     1     -7.1129072     23  1.900                                             
     1     -2.8398274     23  1.900                                             
     2     -8.1634956     23  1.900                                             
  local pseudopotential read in
  partial core-charges read in
  partial kinetic energy density read in
  atomic valenz-charges read in
  non local Contribution for L=           0  read in
    real space projection operators read in
  non local Contribution for L=           0  read in
    real space projection operators read in
  non local Contribution for L=           1  read in
    real space projection operators read in
  non local Contribution for L=           1  read in
    real space projection operators read in
    PAW grid and wavefunctions read in
 
   number of l-projection  operators is LMAX  =           4
   number of lm-projection operators is LMMAX =           8
 
 POTCAR:    PAW Li_sv 10Sep2004                   
   VRHFIN =Li: 1s2s                                                             
   LEXCH  = CA                                                                  
   EATOM  =   199.5738 eV,   14.6683 Ry                                         
                                                                                
   TITEL  = PAW Li_sv 10Sep2004                                                 
   LULTRA =        F    use ultrasoft PP ?                                      
   IUNSCR =        0    unscreen: 0-lin 1-nonlin 2-no                           
   RPACOR =    0.000    partial core radius                                     
   POMASS =    7.010; ZVAL   =    3.000    mass and valenz                      
   RCORE  =    1.700    outmost cutoff radius                                   
   RWIGS  =    2.050; RWIGS  =    1.085    wigner-seitz radius (au A)           
   ENMAX  =  498.387; ENMIN  =  373.790 eV                                      
   ICORE  =        2    local potential                                         
   LCOR   =        T    correct aug charges                                     
   LPAW   =        T    paw PP                                                  
   EAUG   =  628.945                                                            
   RMAX   =    1.732    core radius for proj-oper                               
   RAUG   =    1.300    factor for augmentation sphere                          
   RDEP   =    1.728    radius for radial grids                                 
   RDEPT  =    1.329    core radius for aug-charge                              
                                                                                
   Atomic configuration                                                         
    4 entries                                                                   
     n  l   j            E        occ.                                          
     1  0  0.50       -51.0884   2.0000                                         
     2  0  0.50        -2.8766   1.0000                                         
     2  1  0.50        -2.8708   0.0000                                         
     3  2  1.50        -1.3606   0.0000                                         
   Description                                                                  
     l       E           TYP  RCUT    TYP  RCUT                                 
     0    -51.0884324     23  1.400                                             
     0     -2.8766458     23  1.700                                             
     1     -2.8708293     23  1.400                                             
     2     -1.3605826     23  1.400                                             
  local pseudopotential read in
  atomic valenz-charges read in
  non local Contribution for L=           0  read in
    real space projection operators read in
  non local Contribution for L=           0  read in
    real space projection operators read in
  non local Contribution for L=           1  read in
    real space projection operators read in
    PAW grid and wavefunctions read in
 
   number of l-projection  operators is LMAX  =           3
   number of lm-projection operators is LMMAX =           5
 
 Optimization of the real space projectors (new method)

 maximal supplied QI-value         = 19.84
 optimisation between [QCUT,QGAM] = [ 10.32, 20.83] = [ 29.81,121.55] Ry 
 Optimized for a Real-space Cutoff    1.39 Angstroem

   l    n(q)    QCUT    max X(q) W(low)/X(q) W(high)/X(q)  e(spline) 
   0      9    10.318   158.476    0.64E-04    0.80E-04    0.60E-07
   0      9    10.318   128.097    0.63E-04    0.79E-04    0.60E-07
   1      8    10.318    73.217    0.18E-03    0.19E-03    0.20E-06
   1      8    10.318    48.248    0.18E-03    0.19E-03    0.19E-06
 Optimization of the real space projectors (new method)

 maximal supplied QI-value         = 19.84
 optimisation between [QCUT,QGAM] = [ 10.32, 20.83] = [ 29.81,121.55] Ry 
 Optimized for a Real-space Cutoff    1.39 Angstroem

   l    n(q)    QCUT    max X(q) W(low)/X(q) W(high)/X(q)  e(spline) 
   0      9    10.318   180.455    0.73E-04    0.81E-04    0.62E-07
   0      9    10.318   157.733    0.72E-04    0.81E-04    0.62E-07
   1      8    10.318    66.201    0.18E-03    0.20E-03    0.20E-06
   1      8    10.318    49.617    0.18E-03    0.20E-03    0.20E-06
 Optimization of the real space projectors (new method)

 maximal supplied QI-value         = 22.11
 optimisation between [QCUT,QGAM] = [ 10.39, 20.78] = [ 30.24,120.96] Ry 
 Optimized for a Real-space Cutoff    1.20 Angstroem

   l    n(q)    QCUT    max X(q) W(low)/X(q) W(high)/X(q)  e(spline) 
   0      7    10.392    10.443    0.77E-04    0.41E-05    0.30E-07
   0      7    10.392     8.514    0.20E-03    0.36E-04    0.67E-07
   1      7    10.392     5.406    0.20E-03    0.20E-03    0.12E-06
  PAW P 26Mar2009                       :
 energy of atom  1       EATOM= -176.5121
 kinetic energy error for atom=    0.0021 (will be added to EATOM!!)
  PAW S 27Mar2009                       :
 energy of atom  2       EATOM= -277.3745
 kinetic energy error for atom=    0.0041 (will be added to EATOM!!)
  PAW Li_sv 10Sep2004                   :
 energy of atom  3       EATOM= -199.5738
 kinetic energy error for atom=    0.0564 (will be added to EATOM!!)
 
 
 POSCAR: Good luck                               
  positions in cartesian coordinates
  No initial velocities read in
 exchange correlation table for  LEXCH =        2
   RHO(1)=    0.500       N(1)  =     2000
   RHO(2)=  100.500       N(2)  =     4000
 


--------------------------------------------------------------------------------------------------------


 ion  position               nearest neighbor table
   1  0.000  0.331  0.298-   7 2.01   6 2.04   3 2.04   9 2.05
   2  0.500  0.669  0.798-   8 2.01   5 2.04   4 2.04  10 2.05
   3  0.218  0.169  0.203-   1 2.04  14 2.27  13 2.43  12 2.45
   4  0.282  0.831  0.703-   2 2.04  13 2.27  14 2.43  11 2.45
   5  0.718  0.831  0.703-   2 2.04  16 2.27  15 2.43  11 2.45
   6  0.782  0.169  0.203-   1 2.04  15 2.27  16 2.43  12 2.45
   7  0.000  0.631  0.175-   1 2.01  15 2.36  14 2.36  11 2.43
   8  0.500  0.369  0.675-   2 2.01  13 2.36  16 2.36  12 2.43
   9  0.000  0.323  0.638-   1 2.05  11 2.24  16 2.35  13 2.35
  10  0.500  0.677  0.138-   2 2.05  12 2.24  14 2.35  15 2.35
  11  0.000  0.659  0.772-   9 2.24   7 2.43   4 2.45   5 2.45
  12  0.500  0.341  0.272-  10 2.24   8 2.43   3 2.45   6 2.45
  13  0.252  0.180  0.802-   4 2.27   9 2.35   8 2.36   3 2.43
  14  0.248  0.820  0.302-   3 2.27  10 2.35   7 2.36   4 2.43
  15  0.752  0.820  0.302-   6 2.27  10 2.35   7 2.36   5 2.43
  16  0.748  0.180  0.802-   5 2.27   9 2.35   8 2.36   6 2.43
 
  LATTYP: Found a simple orthorhombic cell.
 ALAT       =     6.0320769347
 B/A-ratio  =     1.0315193043
 C/A-ratio  =     1.2710657222
  
  Lattice vectors:
  
 A1 = (   0.0000000000,   0.0000000000,  -6.0320769347)
 A2 = (   0.0000000000,  -6.2222038029,   0.0000000000)
 A3 = (  -7.6671662251,   0.0000000000,   0.0000000000)


Analysis of symmetry for initial positions (statically):
=====================================================================
 Subroutine PRICEL returns:
 Original cell was already a primitive cell.
 

 Routine SETGRP: Setting up the symmetry group for a 
 simple orthorhombic supercell.


 Subroutine GETGRP returns: Found  4 space group operations
 (whereof  2 operations were pure point group operations)
 out of a pool of  8 trial point group operations.


The static configuration has the point symmetry C_1h.
 The point group associated with its full space group is C_2v.


Analysis of symmetry for dynamics (positions and initial velocities):
=====================================================================
 Subroutine PRICEL returns:
 Original cell was already a primitive cell.
 

 Routine SETGRP: Setting up the symmetry group for a 
 simple orthorhombic supercell.


 Subroutine GETGRP returns: Found  4 space group operations
 (whereof  2 operations were pure point group operations)
 out of a pool of  8 trial point group operations.


The dynamic configuration has the point symmetry C_1h.
 The point group associated with its full space group is C_2v.


 Subroutine INISYM returns: Found  4 space group operations
 (whereof  2 operations are pure point group operations),
 and found     1 'primitive' translations

 
 
 KPOINTS: Automatic mesh                          

Automatic generation of k-mesh.
Space group operators:
 irot       det(A)        alpha          n_x          n_y          n_z        tau_x        tau_y        tau_z
    1     1.000000     0.000000     1.000000     0.000000     0.000000     0.000000     0.000000     0.000000
    2    -1.000000   180.000000     1.000000     0.000000     0.000000     0.000000     0.000000     0.000000
    3    -1.000000   179.999999     0.000000     1.000000     0.000000    -0.500000     0.000000    -0.500000
    4     1.000000   180.000000     0.000000     0.000000     1.000000    -0.500000     0.000000    -0.500000
 
 Subroutine IBZKPT returns following result:
 ===========================================
 
 Found      8 irreducible k-points:
 
 Following reciprocal coordinates:
            Coordinates               Weight
  0.125000  0.125000  0.125000      8.000000
  0.375000  0.125000  0.125000      8.000000
  0.125000  0.375000  0.125000      8.000000
  0.375000  0.375000  0.125000      8.000000
  0.125000  0.125000  0.375000      8.000000
  0.375000  0.125000  0.375000      8.000000
  0.125000  0.375000  0.375000      8.000000
  0.375000  0.375000  0.375000      8.000000
 
 Following cartesian coordinates:
            Coordinates               Weight
  0.016303  0.020089  0.020723      8.000000
  0.048910  0.020089  0.020723      8.000000
  0.016303  0.060268  0.020723      8.000000
  0.048910  0.060268  0.020723      8.000000
  0.016303  0.020089  0.062168      8.000000
  0.048910  0.020089  0.062168      8.000000
  0.016303  0.060268  0.062168      8.000000
  0.048910  0.060268  0.062168      8.000000
 
 TETIRR: Found    140 inequivalent tetrahedra from      384


--------------------------------------------------------------------------------------------------------




 Dimension of arrays:
   k-points           NKPTS =      8   k-points in BZ     NKDIM =      8   number of bands    NBANDS=     48
   number of dos      NEDOS =    301   number of ions     NIONS =     16
   non local maximal  LDIM  =      4   non local SUM 2l+1 LMDIM =      8
   total plane-waves  NPLWV =  90720
   max r-space proj   IRMAX =   3578   max aug-charges    IRDMAX=  10130
   dimension x,y,z NGX =    54 NGY =   42 NGZ =   40
   dimension x,y,z NGXF=   108 NGYF=   84 NGZF=   80
   support grid    NGXF=   108 NGYF=   84 NGZF=   80
   ions per type =               2   8   6
   NGX,Y,Z   is equivalent  to a cutoff of  11.71, 11.22, 11.02 a.u.
   NGXF,Y,Z  is equivalent  to a cutoff of  23.42, 22.44, 22.05 a.u.

 SYSTEM =  unknown system                          
 POSCAR =  Good luck                               

 Startparameter for this run:
   NWRITE =      2    write-flag & timer
   PREC   = accura    normal or accurate (medium, high low for compatibility)
   ISTART =      0    job   : 0-new  1-cont  2-samecut
   ICHARG =      2    charge: 1-file 2-atom 10-const
   ISPIN  =      1    spin polarized calculation?
   LNONCOLLINEAR =      F non collinear calculations
   LSORBIT =      F    spin-orbit coupling
   INIWAV =      1    electr: 0-lowe 1-rand  2-diag
   LASPH  =      F    aspherical Exc in radial PAW
   METAGGA=      F    non-selfconsistent MetaGGA calc.

 Electronic Relaxation 1
   ENCUT  =  420.0 eV  30.87 Ry    5.56 a.u.  12.81 10.40 10.08*2*pi/ulx,y,z
   ENINI  =  420.0     initial cutoff
   ENAUG  =  628.9 eV  augmentation charge cutoff
   NELM   =    100;   NELMIN=  2; NELMDL= -5     # of ELM steps 
   EDIFF  = 0.2E-04   stopping-criterion for ELM
   LREAL  =      T    real-space projection
   NLSPLINE    = F    spline interpolate recip. space projectors
   LCOMPAT=      F    compatible to vasp.4.4
   GGA_COMPAT  = T    GGA compatible to vasp.4.4-vasp.4.6
   LMAXPAW     = -100 max onsite density
   LMAXMIX     =    2 max onsite mixed and CHGCAR
   VOSKOWN=      0    Vosko Wilk Nusair interpolation
   ROPT   =   -0.00025  -0.00025  -0.00025
 Ionic relaxation
   EDIFFG = 0.2E-03   stopping-criterion for IOM
   NSW    =    100    number of steps for IOM
   NBLOCK =      1;   KBLOCK =    100    inner block; outer block 
   IBRION =      2    ionic relax: 0-MD 1-quasi-New 2-CG
   NFREE  =      1    steps in history (QN), initial steepest desc. (CG)
   ISIF   =      3    stress and relaxation
   IWAVPR =     11    prediction:  0-non 1-charg 2-wave 3-comb
   ISYM   =      2    0-nonsym 1-usesym 2-fastsym
   LCORR  =      T    Harris-Foulkes like correction to forces

   POTIM  = 0.5000    time-step for ionic-motion
   TEIN   =    0.0    initial temperature
   TEBEG  =    0.0;   TEEND  =   0.0 temperature during run
   SMASS  =  -3.00    Nose mass-parameter (am)
   estimated Nose-frequenzy (Omega)   =  0.10E-29 period in steps =****** mass=  -0.134E-26a.u.
   SCALEE = 1.0000    scale energy and forces
   NPACO  =    256;   APACO  = 16.0  distance and # of slots for P.C.
   PSTRESS=    0.0 pullay stress

  Mass of Ions in am
   POMASS =  30.97 32.07  7.01
  Ionic Valenz
   ZVAL   =   5.00  6.00  3.00
  Atomic Wigner-Seitz radii
   RWIGS  =  -1.00 -1.00 -1.00
  virtual crystal weights 
   VCA    =   1.00  1.00  1.00
   NELECT =      76.0000    total number of electrons
   NUPDOWN=      -1.0000    fix difference up-down

 DOS related values:
   EMIN   =  10.00;   EMAX   =-10.00  energy-range for DOS
   EFERMI =   0.00
   ISMEAR =    -5;   SIGMA  =   0.20  broadening in eV -4-tet -1-fermi 0-gaus

 Electronic relaxation 2 (details)
   IALGO  =     68    algorithm
   LDIAG  =      T    sub-space diagonalisation (order eigenvalues)
   LSUBROT=      F    optimize rotation matrix (better conditioning)
   TURBO    =      0    0=normal 1=particle mesh
   IRESTART =      0    0=no restart 2=restart with 2 vectors
   NREBOOT  =      0    no. of reboots
   NMIN     =      0    reboot dimension
   EREF     =   0.00    reference energy to select bands
   IMIX   =      4    mixing-type and parameters
     AMIX     =   0.40;   BMIX     =  1.00
     AMIX_MAG =   1.60;   BMIX_MAG =  1.00
     AMIN     =   0.10
     WC   =   100.;   INIMIX=   1;  MIXPRE=   1;  MAXMIX= -45

 Intra band minimization:
   WEIMIN = 0.0010     energy-eigenvalue tresh-hold
   EBREAK =  0.10E-06  absolut break condition
   DEPER  =   0.30     relativ break condition  

   TIME   =   0.40     timestep for ELM

  volume/ion in A,a.u.               =      17.99       121.37
  Fermi-wavevector in a.u.,A,eV,Ry     =   1.050342  1.984858 15.010194  1.103218
  Thomas-Fermi vector in A             =   2.185341
 
 Write flags
   LWAVE        =      F    write WAVECAR
   LDOWNSAMPLE  =      F    k-point downsampling of WAVECAR
   LCHARG       =      F    write CHGCAR
   LVTOT        =      F    write LOCPOT, total local potential
   LVHAR        =      F    write LOCPOT, Hartree potential only
   LELF         =      F    write electronic localiz. function (ELF)
   LORBIT       =      0    0 simple, 1 ext, 2 COOP (PROOUT), +10 PAW based schemes


 Dipole corrections
   LMONO  =      F    monopole corrections only (constant potential shift)
   LDIPOL =      F    correct potential (dipole corrections)
   IDIPOL =      0    1-x, 2-y, 3-z, 4-all directions 
   EPSILON=  1.0000000 bulk dielectric constant

 Exchange correlation treatment:
   GGA     =    --    GGA type
   LEXCH   =     2    internal setting for exchange type
   VOSKOWN=      0    Vosko Wilk Nusair interpolation
   LHFCALC =     F    Hartree Fock is set to
   LHFONE  =     F    Hartree Fock one center treatment
   AEXX    =    0.0000 exact exchange contribution

 Linear response parameters
   LEPSILON=     F    determine dielectric tensor
   LRPA    =     F    only Hartree local field effects (RPA)
   LNABLA  =     F    use nabla operator in PAW spheres
   LVEL    =     F    velocity operator in full k-point grid
   LINTERFAST=   F  fast interpolation
   KINTER  =     0    interpolate to denser k-point grid
   CSHIFT  =0.1000    complex shift for real part using Kramers Kronig
   OMEGAMAX=  -1.0    maximum frequency
   DEG_THRESHOLD= 0.2000000E-02 threshold for treating states as degnerate
   RTIME   =   -0.100 relaxation time in fs
  (WPLASMAI=    0.000 imaginary part of plasma frequency in eV, 0.658/RTIME)
   DFIELD  = 0.0000000 0.0000000 0.0000000 field for delta impulse in time
 
 Orbital magnetization related:
   ORBITALMAG=     F  switch on orbital magnetization
   LCHIMAG   =     F  perturbation theory with respect to B field
   DQ        =  0.001000  dq finite difference perturbation B field
   LLRAUG    =     F  two centre corrections for induced B field



--------------------------------------------------------------------------------------------------------


 conjugate gradient relaxation of ions
 charge density and potential will be updated during run
 non-spin polarized calculation
 RMM-DIIS sequential band-by-band and
  variant of blocked Davidson during initial phase
 perform sub-space diagonalisation
    before iterative eigenvector-optimisation
 modified Broyden-mixing scheme, WC =      100.0
 initial mixing is a Kerker type mixing with AMIX =  0.4000 and BMIX =      1.0000
 Hartree-type preconditioning will be used
 using additional bands           10
 real space projection scheme for non local part
 use partial core corrections
 calculate Harris-corrections to forces 
   (improved forces if not selfconsistent)
 use of overlap-Matrix (Vanderbilt PP)
 Fermi weights with tetrahedron method with Bloechl corrections


--------------------------------------------------------------------------------------------------------


  energy-cutoff  :      420.00
  volume of cell :      287.77
      direct lattice vectors                 reciprocal lattice vectors
     7.667166225  0.000000000  0.000000000     0.130426284  0.000000000  0.000000000
     0.000000000  6.222203803  0.000000000     0.000000000  0.160714761  0.000000000
     0.000000000  0.000000000  6.032076935     0.000000000  0.000000000  0.165780379

  length of vectors
     7.667166225  6.222203803  6.032076935     0.130426284  0.160714761  0.165780379


 
 k-points in units of 2pi/SCALE and weight: Automatic mesh                          
   0.01630329  0.02008935  0.02072255       0.125
   0.04890986  0.02008935  0.02072255       0.125
   0.01630329  0.06026804  0.02072255       0.125
   0.04890986  0.06026804  0.02072255       0.125
   0.01630329  0.02008935  0.06216764       0.125
   0.04890986  0.02008935  0.06216764       0.125
   0.01630329  0.06026804  0.06216764       0.125
   0.04890986  0.06026804  0.06216764       0.125
 
 k-points in reciprocal lattice and weights: Automatic mesh                          
   0.12500000  0.12500000  0.12500000       0.125
   0.37500000  0.12500000  0.12500000       0.125
   0.12500000  0.37500000  0.12500000       0.125
   0.37500000  0.37500000  0.12500000       0.125
   0.12500000  0.12500000  0.37500000       0.125
   0.37500000  0.12500000  0.37500000       0.125
   0.12500000  0.37500000  0.37500000       0.125
   0.37500000  0.37500000  0.37500000       0.125
 
 position of ions in fractional coordinates (direct lattice) 
   0.00000000  0.33100749  0.29843656
   0.50000000  0.66899251  0.79843656
   0.21818844  0.16949605  0.20260341
   0.28181156  0.83050395  0.70260341
   0.71818844  0.83050395  0.70260341
   0.78181156  0.16949605  0.20260341
   0.00000000  0.63135388  0.17483226
   0.50000000  0.36864612  0.67483226
   0.00000000  0.32347468  0.63779371
   0.50000000  0.67652532  0.13779371
   0.00000000  0.65853707  0.77238260
   0.50000000  0.34146293  0.27238260
   0.25235779  0.17972799  0.80227929
   0.24764221  0.82027201  0.30227929
   0.75235779  0.82027201  0.30227929
   0.74764221  0.17972799  0.80227929
 
 position of ions in cartesian coordinates  (Angst):
   0.00000000  2.05959606  1.80019226
   3.83358311  4.16260774  4.81623073
   1.67288706  1.05463897  1.22211937
   2.16069605  5.16756483  4.23815784
   5.50647017  5.16756483  4.23815784
   5.99427916  1.05463897  1.22211937
   0.00000000  3.92841249  1.05460164
   3.83358311  2.29379131  4.07064011
   0.00000000  2.01272541  3.84722071
   3.83358311  4.20947839  0.83118225
   0.00000000  4.09755186  4.65907125
   3.83358311  2.12465195  1.64303278
   1.93486910  1.11830417  4.83941038
   1.89871401  5.10389963  1.82337192
   5.76845221  5.10389963  1.82337192
   5.73229713  1.11830417  4.83941038
 


--------------------------------------------------------------------------------------------------------


 k-point  1 :   0.1250 0.1250 0.1250  plane waves:    5638
 k-point  2 :   0.3750 0.1250 0.1250  plane waves:    5622
 k-point  3 :   0.1250 0.3750 0.1250  plane waves:    5599
 k-point  4 :   0.3750 0.3750 0.1250  plane waves:    5621
 k-point  5 :   0.1250 0.1250 0.3750  plane waves:    5620
 k-point  6 :   0.3750 0.1250 0.3750  plane waves:    5629
 k-point  7 :   0.1250 0.3750 0.3750  plane waves:    5625
 k-point  8 :   0.3750 0.3750 0.3750  plane waves:    5636

 maximum and minimum number of plane-waves per node :       370      337

 maximum number of plane-waves:      5638
 maximum index in each direction: 
   IXMAX=   12   IYMAX=   10   IZMAX=    9
   IXMIN=  -13   IYMIN=  -10   IZMIN=  -10


 real space projection operators:
  total allocation   :       2649.52 KBytes
  max/ min on nodes  :        202.53        143.08


 parallel 3D FFT for wavefunctions:
    minimum data exchange during FFTs selected (reduces bandwidth)
 parallel 3D FFT for charge:
    minimum data exchange during FFTs selected (reduces bandwidth)


 total amount of memory used by VASP MPI-rank0    33568. kBytes
=======================================================================

   base      :      30000. kBytes
   nonlr-proj:       1210. kBytes
   fftplans  :        656. kBytes
   grid      :       1147. kBytes
   one-center:          3. kBytes
   wavefun   :        552. kBytes
 
     INWAV:  cpu time    0.0000: real time    0.0000
 Broyden mixing: mesh for mixing (old mesh)
   NGX = 25   NGY = 21   NGZ = 21
  (NGX  =108   NGY  = 84   NGZ  = 80)
  gives a total of  11025 points

 initial charge density was supplied:
 charge density of overlapping atoms calculated
 number of electron      76.0000000 magnetization 
 keeping initial charge density in first step


--------------------------------------------------------------------------------------------------------


 Maximum index for non-local projection operator          431
 Maximum index for augmentation-charges          529 (set IRDMAX)


--------------------------------------------------------------------------------------------------------


 First call to EWALD:  gamma=   0.268
 Maximum number of real-space cells 2x 3x 3
 Maximum number of reciprocal cells 3x 3x 3

    FEWALD:  cpu time    0.0016: real time    0.0016


--------------------------------------- Iteration      1(   1)  ---------------------------------------


    POTLOK:  cpu time    0.0049: real time    0.0085
    SETDIJ:  cpu time    0.0030: real time    0.0038
     EDDAV:  cpu time    0.1957: real time    0.2032
 BZINTS: Fermi energy: 14.867799; 76.000000 electrons
         Band energy:-117.461775;  BLOECHL correction: -0.103290
       DOS:  cpu time    0.0089: real time    0.0089
    --------------------------------------------
      LOOP:  cpu time    0.2125: real time    0.2246

 eigenvalue-minimisations  :   768
 total energy-change (2. order) : 0.5051602E+03  (-0.2842993E+04)
 number of electron      76.0000000 magnetization 
 augmentation part       76.0000000 magnetization 

 Free energy of the ion-electron system (eV)
  ---------------------------------------------------
  alpha Z        PSCENC =        68.57190477
  Ewald energy   TEWEN  =     -2732.75012391
  -Hartree energ DENC   =      -617.25936590
  -exchange      EXHF   =         0.00000000
  -V(xc)+E(xc)   XCENC  =       181.86945651
  PAW double counting   =      2494.22442938    -2541.12215007
  entropy T*S    EENTRO =         0.00000000
  eigenvalues    EBANDS =      -117.46177451
  atomic energy  EATOM  =      3769.08782378
  Solvation  Ediel_sol  =         0.00000000
  ---------------------------------------------------
  free energy    TOTEN  =       505.16020005 eV

  energy without entropy =      505.16020005  energy(sigma->0) =      505.16020005


--------------------------------------------------------------------------------------------------------




--------------------------------------- Iteration      1(   2)  ---------------------------------------


     EDDAV:  cpu time    0.1924: real time    0.1927
 BZINTS: Fermi energy:  4.497062; 76.000000 electrons
         Band energy:-631.331274;  BLOECHL correction:  0.000000
       DOS:  cpu time    0.0013: real time    0.0012
    --------------------------------------------
      LOOP:  cpu time    0.1936: real time    0.1939

 eigenvalue-minimisations  :   904
 total energy-change (2. order) :-0.5138695E+03  (-0.4877721E+03)
 number of electron      76.0000000 magnetization 
 augmentation part       76.0000000 magnetization 

 Free energy of the ion-electron system (eV)
  ---------------------------------------------------
  alpha Z        PSCENC =        68.57190477
  Ewald energy   TEWEN  =     -2732.75012391
  -Hartree energ DENC   =      -617.25936590
  -exchange      EXHF   =         0.00000000
  -V(xc)+E(xc)   XCENC  =       181.86945651
  PAW double counting   =      2494.22442938    -2541.12215007
  entropy T*S    EENTRO =         0.00000000
  eigenvalues    EBANDS =      -631.33127362
  atomic energy  EATOM  =      3769.08782378
  Solvation  Ediel_sol  =         0.00000000
  ---------------------------------------------------
  free energy    TOTEN  =        -8.70929906 eV

  energy without entropy =       -8.70929906  energy(sigma->0) =       -8.70929906


--------------------------------------------------------------------------------------------------------




--------------------------------------- Iteration      1(   3)  ---------------------------------------


     EDDAV:  cpu time    0.2191: real time    0.2194
 BZINTS: Fermi energy:  1.553186; 76.000000 electrons
         Band energy:-694.699744;  BLOECHL correction:  0.000000
       DOS:  cpu time    0.0012: real time    0.0012
    --------------------------------------------
      LOOP:  cpu time    0.2203: real time    0.2206

 eigenvalue-minimisations  :  1056
 total energy-change (2. order) :-0.6336847E+02  (-0.6289618E+02)
 number of electron      76.0000000 magnetization 
 augmentation part       76.0000000 magnetization 

 Free energy of the ion-electron system (eV)
  ---------------------------------------------------
  alpha Z        PSCENC =        68.57190477
  Ewald energy   TEWEN  =     -2732.75012391
  -Hartree energ DENC   =      -617.25936590
  -exchange      EXHF   =         0.00000000
  -V(xc)+E(xc)   XCENC  =       181.86945651
  PAW double counting   =      2494.22442938    -2541.12215007
  entropy T*S    EENTRO =         0.00000000
  eigenvalues    EBANDS =      -694.69974378
  atomic energy  EATOM  =      3769.08782378
  Solvation  Ediel_sol  =         0.00000000
  ---------------------------------------------------
  free energy    TOTEN  =       -72.07776921 eV

  energy without entropy =      -72.07776921  energy(sigma->0) =      -72.07776921


--------------------------------------------------------------------------------------------------------




--------------------------------------- Iteration      1(   4)  ---------------------------------------


     EDDAV:  cpu time    0.2776: real time    0.2779
 BZINTS: Fermi energy:  1.543830; 76.000000 electrons
         Band energy:-701.780272;  BLOECHL correction:  0.000000
       DOS:  cpu time    0.0012: real time    0.0012
    --------------------------------------------
      LOOP:  cpu time    0.2787: real time    0.2790

 eigenvalue-minimisations  :  1416
 total energy-change (2. order) :-0.7080529E+01  (-0.7058413E+01)
 number of electron      76.0000000 magnetization 
 augmentation part       76.0000000 magnetization 

 Free energy of the ion-electron system (eV)
  ---------------------------------------------------
  alpha Z        PSCENC =        68.57190477
  Ewald energy   TEWEN  =     -2732.75012391
  -Hartree energ DENC   =      -617.25936590
  -exchange      EXHF   =         0.00000000
  -V(xc)+E(xc)   XCENC  =       181.86945651
  PAW double counting   =      2494.22442938    -2541.12215007
  entropy T*S    EENTRO =         0.00000000
  eigenvalues    EBANDS =      -701.78027238
  atomic energy  EATOM  =      3769.08782378
  Solvation  Ediel_sol  =         0.00000000
  ---------------------------------------------------
  free energy    TOTEN  =       -79.15829782 eV

  energy without entropy =      -79.15829782  energy(sigma->0) =      -79.15829782


--------------------------------------------------------------------------------------------------------




--------------------------------------- Iteration      1(   5)  ---------------------------------------


     EDDAV:  cpu time    0.2254: real time    0.2256
 BZINTS: Fermi energy:  1.517530; 76.000000 electrons
         Band energy:-702.637392;  BLOECHL correction:  0.000000
       DOS:  cpu time    0.0012: real time    0.0012
    CHARGE:  cpu time    0.0159: real time    0.0159
    MIXING:  cpu time    0.0009: real time    0.0016
    --------------------------------------------
      LOOP:  cpu time    0.2434: real time    0.2444

 eigenvalue-minimisations  :  1112
 total energy-change (2. order) :-0.8571194E+00  (-0.8569529E+00)
 number of electron      76.0000019 magnetization 
 augmentation part       -1.8428975 magnetization 

 Broyden mixing:
  rms(total) = 0.21861E+01    rms(broyden)= 0.21858E+01
  rms(prec ) = 0.24584E+01
  weight for this iteration     100.00

 Free energy of the ion-electron system (eV)
  ---------------------------------------------------
  alpha Z        PSCENC =        68.57190477
  Ewald energy   TEWEN  =     -2732.75012391
  -Hartree energ DENC   =      -617.25936590
  -exchange      EXHF   =         0.00000000
  -V(xc)+E(xc)   XCENC  =       181.86945651
  PAW double counting   =      2494.22442938    -2541.12215007
  entropy T*S    EENTRO =         0.00000000
  eigenvalues    EBANDS =      -702.63739177
  atomic energy  EATOM  =      3769.08782378
  Solvation  Ediel_sol  =         0.00000000
  ---------------------------------------------------
  free energy    TOTEN  =       -80.01541721 eV

  energy without entropy =      -80.01541721  energy(sigma->0) =      -80.01541721


--------------------------------------------------------------------------------------------------------




--------------------------------------- Iteration      1(   6)  ---------------------------------------


    POTLOK:  cpu time    0.0034: real time    0.0037
    SETDIJ:  cpu time    0.0009: real time    0.0009
    EDDIAG:  cpu time    0.0508: real time    0.0515
  RMM-DIIS:  cpu time    0.0734: real time    0.0734
    ORTHCH:  cpu time    0.0069: real time    0.0069
 BZINTS: Fermi energy:  2.034183; 76.000000 electrons
         Band energy:-685.410043;  BLOECHL correction:  0.000000
       DOS:  cpu time    0.0014: real time    0.0014
    CHARGE:  cpu time    0.0148: real time    0.0148
    MIXING:  cpu time    0.0005: real time    0.0005
    --------------------------------------------
      LOOP:  cpu time    0.1520: real time    0.1529

 eigenvalue-minimisations  :   803
 total energy-change (2. order) : 0.2344190E+01  (-0.7082338E+00)
 number of electron      76.0000019 magnetization 
 augmentation part       -1.7845983 magnetization 

 Broyden mixing:
  rms(total) = 0.14756E+01    rms(broyden)= 0.14756E+01
  rms(prec ) = 0.15400E+01
  weight for this iteration     100.00

 eigenvalues of (default mixing * dielectric matrix)
  average eigenvalue GAMMA=   2.3544
  2.3544

 Free energy of the ion-electron system (eV)
  ---------------------------------------------------
  alpha Z        PSCENC =        68.57190477
  Ewald energy   TEWEN  =     -2732.75012391
  -Hartree energ DENC   =      -632.25502257
  -exchange      EXHF   =         0.00000000
  -V(xc)+E(xc)   XCENC  =       183.67412545
  PAW double counting   =      3969.79713349    -4018.38702487
  entropy T*S    EENTRO =         0.00000000
  eigenvalues    EBANDS =      -685.41004304
  atomic energy  EATOM  =      3769.08782378
  Solvation  Ediel_sol  =         0.00000000
  ---------------------------------------------------
  free energy    TOTEN  =       -77.67122690 eV

  energy without entropy =      -77.67122690  energy(sigma->0) =      -77.67122690


--------------------------------------------------------------------------------------------------------




--------------------------------------- Iteration      1(   7)  ---------------------------------------


    POTLOK:  cpu time    0.0032: real time    0.0036
    SETDIJ:  cpu time    0.0010: real time    0.0010
    EDDIAG:  cpu time    0.0506: real time    0.0506
  RMM-DIIS:  cpu time    0.0754: real time    0.0754
    ORTHCH:  cpu time    0.0068: real time    0.0068
 BZINTS: Fermi energy:  2.371566; 76.000000 electrons
         Band energy:-670.530154;  BLOECHL correction:  0.000000
       DOS:  cpu time    0.0012: real time    0.0012
    CHARGE:  cpu time    0.0151: real time    0.0151
    MIXING:  cpu time    0.0005: real time    0.0005
    --------------------------------------------
      LOOP:  cpu time    0.1538: real time    0.1542

 eigenvalue-minimisations  :   838
 total energy-change (2. order) : 0.4227504E+00  (-0.2087298E+00)
 number of electron      76.0000019 magnetization 
 augmentation part       -1.7442347 magnetization 

 Broyden mixing:
  rms(total) = 0.50095E+00    rms(broyden)= 0.50095E+00
  rms(prec ) = 0.52509E+00
  weight for this iteration     100.00

 eigenvalues of (default mixing * dielectric matrix)
  average eigenvalue GAMMA=   1.9175
  1.3974  2.4375

 Free energy of the ion-electron system (eV)
  ---------------------------------------------------
  alpha Z        PSCENC =        68.57190477
  Ewald energy   TEWEN  =     -2732.75012391
  -Hartree energ DENC   =      -647.01772540
  -exchange      EXHF   =         0.00000000
  -V(xc)+E(xc)   XCENC  =       185.35498646
  PAW double counting   =      6483.95655634    -6533.92174462
  entropy T*S    EENTRO =         0.00000000
  eigenvalues    EBANDS =      -670.53015393
  atomic energy  EATOM  =      3769.08782378
  Solvation  Ediel_sol  =         0.00000000
  ---------------------------------------------------
  free energy    TOTEN  =       -77.24847651 eV

  energy without entropy =      -77.24847651  energy(sigma->0) =      -77.24847651


--------------------------------------------------------------------------------------------------------




--------------------------------------- Iteration      1(   8)  ---------------------------------------


    POTLOK:  cpu time    0.0030: real time    0.0032
    SETDIJ:  cpu time    0.0010: real time    0.0010
    EDDIAG:  cpu time    0.0500: real time    0.0500
  RMM-DIIS:  cpu time    0.0842: real time    0.0842
    ORTHCH:  cpu time    0.0069: real time    0.0069
 BZINTS: Fermi energy:  2.356405; 76.000000 electrons
         Band energy:-668.279036;  BLOECHL correction:  0.000000
       DOS:  cpu time    0.0014: real time    0.0014
    CHARGE:  cpu time    0.0151: real time    0.0151
    MIXING:  cpu time    0.0005: real time    0.0005
    --------------------------------------------
      LOOP:  cpu time    0.1619: real time    0.1622

 eigenvalue-minimisations  :   921
 total energy-change (2. order) : 0.6573347E-01  (-0.2367455E-01)
 number of electron      76.0000018 magnetization 
 augmentation part       -1.7618321 magnetization 

 Broyden mixing:
  rms(total) = 0.49524E-01    rms(broyden)= 0.49497E-01
  rms(prec ) = 0.63788E-01
  weight for this iteration     100.00

 eigenvalues of (default mixing * dielectric matrix)
  average eigenvalue GAMMA=   1.6368
  2.3208  1.0453  1.5444

 Free energy of the ion-electron system (eV)
  ---------------------------------------------------
  alpha Z        PSCENC =        68.57190477
  Ewald energy   TEWEN  =     -2732.75012391
  -Hartree energ DENC   =      -649.32728551
  -exchange      EXHF   =         0.00000000
  -V(xc)+E(xc)   XCENC  =       185.63664965
  PAW double counting   =      7544.14764103    -7594.27031690
  entropy T*S    EENTRO =         0.00000000
  eigenvalues    EBANDS =      -668.27903595
  atomic energy  EATOM  =      3769.08782378
  Solvation  Ediel_sol  =         0.00000000
  ---------------------------------------------------
  free energy    TOTEN  =       -77.18274304 eV

  energy without entropy =      -77.18274304  energy(sigma->0) =      -77.18274304


--------------------------------------------------------------------------------------------------------




--------------------------------------- Iteration      1(   9)  ---------------------------------------


    POTLOK:  cpu time    0.0031: real time    0.0034
    SETDIJ:  cpu time    0.0010: real time    0.0010
    EDDIAG:  cpu time    0.0504: real time    0.0504
  RMM-DIIS:  cpu time    0.0923: real time    0.0923
    ORTHCH:  cpu time    0.0069: real time    0.0069
 BZINTS: Fermi energy:  2.350607; 76.000000 electrons
         Band energy:-669.122163;  BLOECHL correction:  0.000000
       DOS:  cpu time    0.0014: real time    0.0014
    CHARGE:  cpu time    0.0147: real time    0.0147
    MIXING:  cpu time    0.0005: real time    0.0005
    --------------------------------------------
      LOOP:  cpu time    0.1704: real time    0.1707

 eigenvalue-minimisations  :   995
 total energy-change (2. order) : 0.4926151E-02  (-0.2723212E-02)
 number of electron      76.0000018 magnetization 
 augmentation part       -1.7765074 magnetization 

 Broyden mixing:
  rms(total) = 0.27783E-01    rms(broyden)= 0.27766E-01
  rms(prec ) = 0.29736E-01
  weight for this iteration     100.00

 eigenvalues of (default mixing * dielectric matrix)
  average eigenvalue GAMMA=   1.8025
  2.2916  2.2916  1.3134  1.3134

 Free energy of the ion-electron system (eV)
  ---------------------------------------------------
  alpha Z        PSCENC =        68.57190477
  Ewald energy   TEWEN  =     -2732.75012391
  -Hartree energ DENC   =      -648.50465409
  -exchange      EXHF   =         0.00000000
  -V(xc)+E(xc)   XCENC  =       185.58714622
  PAW double counting   =      7444.70649519    -7494.75424614
  entropy T*S    EENTRO =         0.00000000
  eigenvalues    EBANDS =      -669.12216271
  atomic energy  EATOM  =      3769.08782378
  Solvation  Ediel_sol  =         0.00000000
  ---------------------------------------------------
  free energy    TOTEN  =       -77.17781689 eV

  energy without entropy =      -77.17781689  energy(sigma->0) =      -77.17781689


--------------------------------------------------------------------------------------------------------




--------------------------------------- Iteration      1(  10)  ---------------------------------------


    POTLOK:  cpu time    0.0031: real time    0.0034
    SETDIJ:  cpu time    0.0010: real time    0.0010
    EDDIAG:  cpu time    0.0497: real time    0.0497
  RMM-DIIS:  cpu time    0.0976: real time    0.0976
    ORTHCH:  cpu time    0.0069: real time    0.0069
 BZINTS: Fermi energy:  2.349481; 76.000000 electrons
         Band energy:-669.030034;  BLOECHL correction:  0.000000
       DOS:  cpu time    0.0014: real time    0.0014
    CHARGE:  cpu time    0.0149: real time    0.0149
    MIXING:  cpu time    0.0005: real time    0.0005
    --------------------------------------------
      LOOP:  cpu time    0.1751: real time    0.1754

 eigenvalue-minimisations  :  1085
 total energy-change (2. order) :-0.6435621E-03  (-0.7737162E-03)
 number of electron      76.0000018 magnetization 
 augmentation part       -1.7822801 magnetization 

 Broyden mixing:
  rms(total) = 0.11905E-01    rms(broyden)= 0.11886E-01
  rms(prec ) = 0.13583E-01
  weight for this iteration     100.00

 eigenvalues of (default mixing * dielectric matrix)
  average eigenvalue GAMMA=   1.8104
  2.4914  2.4914  1.8455  0.9436  1.2802

 Free energy of the ion-electron system (eV)
  ---------------------------------------------------
  alpha Z        PSCENC =        68.57190477
  Ewald energy   TEWEN  =     -2732.75012391
  -Hartree energ DENC   =      -648.62784808
  -exchange      EXHF   =         0.00000000
  -V(xc)+E(xc)   XCENC  =       185.59248283
  PAW double counting   =      7403.20897905    -7453.23164511
  entropy T*S    EENTRO =         0.00000000
  eigenvalues    EBANDS =      -669.03003378
  atomic energy  EATOM  =      3769.08782378
  Solvation  Ediel_sol  =         0.00000000
  ---------------------------------------------------
  free energy    TOTEN  =       -77.17846045 eV

  energy without entropy =      -77.17846045  energy(sigma->0) =      -77.17846045


--------------------------------------------------------------------------------------------------------




--------------------------------------- Iteration      1(  11)  ---------------------------------------


    POTLOK:  cpu time    0.0031: real time    0.0034
    SETDIJ:  cpu time    0.0010: real time    0.0010
    EDDIAG:  cpu time    0.0502: real time    0.0502
  RMM-DIIS:  cpu time    0.0971: real time    0.0971
    ORTHCH:  cpu time    0.0074: real time    0.0074
 BZINTS: Fermi energy:  2.349139; 76.000000 electrons
         Band energy:-668.722665;  BLOECHL correction:  0.000000
       DOS:  cpu time    0.0014: real time    0.0014
    CHARGE:  cpu time    0.0160: real time    0.0160
    MIXING:  cpu time    0.0005: real time    0.0005
    --------------------------------------------
      LOOP:  cpu time    0.1768: real time    0.1770

 eigenvalue-minimisations  :  1075
 total energy-change (2. order) :-0.2115057E-03  (-0.2400973E-03)
 number of electron      76.0000018 magnetization 
 augmentation part       -1.7839492 magnetization 

 Broyden mixing:
  rms(total) = 0.21535E-02    rms(broyden)= 0.21205E-02
  rms(prec ) = 0.30413E-02
  weight for this iteration     100.00

 eigenvalues of (default mixing * dielectric matrix)
  average eigenvalue GAMMA=   1.7369
  2.5711  2.5711  1.5073  1.5073  1.1323  1.1323

 Free energy of the ion-electron system (eV)
  ---------------------------------------------------
  alpha Z        PSCENC =        68.57190477
  Ewald energy   TEWEN  =     -2732.75012391
  -Hartree energ DENC   =      -648.98048248
  -exchange      EXHF   =         0.00000000
  -V(xc)+E(xc)   XCENC  =       185.62424300
  PAW double counting   =      7388.68886396    -7438.69823585
  entropy T*S    EENTRO =         0.00000000
  eigenvalues    EBANDS =      -668.72266523
  atomic energy  EATOM  =      3769.08782378
  Solvation  Ediel_sol  =         0.00000000
  ---------------------------------------------------
  free energy    TOTEN  =       -77.17867196 eV

  energy without entropy =      -77.17867196  energy(sigma->0) =      -77.17867196


--------------------------------------------------------------------------------------------------------




--------------------------------------- Iteration      1(  12)  ---------------------------------------


    POTLOK:  cpu time    0.0033: real time    0.0036
    SETDIJ:  cpu time    0.0010: real time    0.0010
    EDDIAG:  cpu time    0.0505: real time    0.0505
  RMM-DIIS:  cpu time    0.0878: real time    0.0878
    ORTHCH:  cpu time    0.0069: real time    0.0069
 BZINTS: Fermi energy:  2.345692; 76.000000 electrons
         Band energy:-668.742170;  BLOECHL correction:  0.000000
       DOS:  cpu time    0.0014: real time    0.0014
    CHARGE:  cpu time    0.0146: real time    0.0146
    MIXING:  cpu time    0.0006: real time    0.0006
    --------------------------------------------
      LOOP:  cpu time    0.1660: real time    0.1663

 eigenvalue-minimisations  :   951
 total energy-change (2. order) :-0.7158820E-04  (-0.9041307E-04)
 number of electron      76.0000018 magnetization 
 augmentation part       -1.7857088 magnetization 

 Broyden mixing:
  rms(total) = 0.11822E-02    rms(broyden)= 0.11595E-02
  rms(prec ) = 0.15613E-02
  weight for this iteration     100.00

 eigenvalues of (default mixing * dielectric matrix)
  average eigenvalue GAMMA=   1.6524
  2.5487  2.5487  1.7876  1.7876  1.2032  1.0626  0.6282

 Free energy of the ion-electron system (eV)
  ---------------------------------------------------
  alpha Z        PSCENC =        68.57190477
  Ewald energy   TEWEN  =     -2732.75012391
  -Hartree energ DENC   =      -648.97383151
  -exchange      EXHF   =         0.00000000
  -V(xc)+E(xc)   XCENC  =       185.62567994
  PAW double counting   =      7389.75760730    -7439.75563412
  entropy T*S    EENTRO =         0.00000000
  eigenvalues    EBANDS =      -668.74216980
  atomic energy  EATOM  =      3769.08782378
  Solvation  Ediel_sol  =         0.00000000
  ---------------------------------------------------
  free energy    TOTEN  =       -77.17874354 eV

  energy without entropy =      -77.17874354  energy(sigma->0) =      -77.17874354


--------------------------------------------------------------------------------------------------------




--------------------------------------- Iteration      1(  13)  ---------------------------------------


    POTLOK:  cpu time    0.0031: real time    0.0034
    SETDIJ:  cpu time    0.0010: real time    0.0010
    EDDIAG:  cpu time    0.0502: real time    0.0502
  RMM-DIIS:  cpu time    0.0581: real time    0.0582
    ORTHCH:  cpu time    0.0068: real time    0.0068
 BZINTS: Fermi energy:  2.342535; 76.000000 electrons
         Band energy:-668.717764;  BLOECHL correction:  0.000000
       DOS:  cpu time    0.0014: real time    0.0014
    CHARGE:  cpu time    0.0151: real time    0.0151
    MIXING:  cpu time    0.0006: real time    0.0006
    --------------------------------------------
      LOOP:  cpu time    0.1363: real time    0.1366

 eigenvalue-minimisations  :   622
 total energy-change (2. order) :-0.2066250E-04  (-0.2761083E-04)
 number of electron      76.0000018 magnetization 
 augmentation part       -1.7862404 magnetization 

 Broyden mixing:
  rms(total) = 0.97354E-03    rms(broyden)= 0.96702E-03
  rms(prec ) = 0.11610E-02
  weight for this iteration     100.00

 eigenvalues of (default mixing * dielectric matrix)
  average eigenvalue GAMMA=   1.7248
  2.9644  2.6496  2.0351  2.0351  1.2132  1.0861  0.9074  0.9074

 Free energy of the ion-electron system (eV)
  ---------------------------------------------------
  alpha Z        PSCENC =        68.57190477
  Ewald energy   TEWEN  =     -2732.75012391
  -Hartree energ DENC   =      -649.00690596
  -exchange      EXHF   =         0.00000000
  -V(xc)+E(xc)   XCENC  =       185.62866731
  PAW double counting   =      7391.40761707    -7441.39998309
  entropy T*S    EENTRO =         0.00000000
  eigenvalues    EBANDS =      -668.71776418
  atomic energy  EATOM  =      3769.08782378
  Solvation  Ediel_sol  =         0.00000000
  ---------------------------------------------------
  free energy    TOTEN  =       -77.17876421 eV

  energy without entropy =      -77.17876421  energy(sigma->0) =      -77.17876421


--------------------------------------------------------------------------------------------------------




--------------------------------------- Iteration      1(  14)  ---------------------------------------


    POTLOK:  cpu time    0.0031: real time    0.0034
    SETDIJ:  cpu time    0.0010: real time    0.0010
    EDDIAG:  cpu time    0.0495: real time    0.0495
  RMM-DIIS:  cpu time    0.0568: real time    0.0568
    ORTHCH:  cpu time    0.0067: real time    0.0067
 BZINTS: Fermi energy:  2.339643; 76.000000 electrons
         Band energy:-668.701014;  BLOECHL correction:  0.000000
       DOS:  cpu time    0.0014: real time    0.0014
    --------------------------------------------
      LOOP:  cpu time    0.1186: real time    0.1189

 eigenvalue-minimisations  :   613
 total energy-change (2. order) :-0.2382999E-05  (-0.6301699E-05)
 number of electron      76.0000018 magnetization 
 augmentation part       -1.7862404 magnetization 

 Free energy of the ion-electron system (eV)
  ---------------------------------------------------
  alpha Z        PSCENC =        68.57190477
  Ewald energy   TEWEN  =     -2732.75012391
  -Hartree energ DENC   =      -649.03764057
  -exchange      EXHF   =         0.00000000
  -V(xc)+E(xc)   XCENC  =       185.63153671
  PAW double counting   =      7390.51948729    -7440.50074103
  entropy T*S    EENTRO =         0.00000000
  eigenvalues    EBANDS =      -668.70101363
  atomic energy  EATOM  =      3769.08782378
  Solvation  Ediel_sol  =         0.00000000
  ---------------------------------------------------
  free energy    TOTEN  =       -77.17876659 eV

  energy without entropy =      -77.17876659  energy(sigma->0) =      -77.17876659


--------------------------------------------------------------------------------------------------------




 average (electrostatic) potential at core
  the test charge radii are     0.9587  0.9698  0.7079
  (the norm of the test charge is              1.0000)
       1 -88.3785       2 -88.3785       3 -88.2519       4 -88.2519       5 -88.2519
       6 -88.2519       7 -88.3560       8 -88.3560       9 -88.2035      10 -88.2035
      11 -63.8251      12 -63.8251      13 -63.5445      14 -63.5445      15 -63.5445
      16 -63.5445
 
 
 
 E-fermi :   2.3396     XC(G=0):  -9.1115     alpha+bet :-10.4951


 k-point     1 :       0.1250    0.1250    0.1250
  band No.  band energies     occupation 
      1     -40.9956      2.00000
      2     -40.9955      2.00000
      3     -40.7237      2.00000
      4     -40.7231      2.00000
      5     -40.7229      2.00000
      6     -40.7223      2.00000
      7     -12.6235      2.00000
      8     -12.4862      2.00000
      9      -9.6035      2.00000
     10      -9.5445      2.00000
     11      -9.4754      2.00000
     12      -9.3689      2.00000
     13      -9.3441      2.00000
     14      -9.2487      2.00000
     15      -5.5469      2.00000
     16      -5.0664      2.00000
     17      -2.5783      2.00000
     18      -2.5210      2.00000
     19      -2.4711      2.00000
     20      -2.2267      2.00000
     21      -2.1460      2.00000
     22      -2.1302      2.00000
     23      -0.1441      2.00000
     24      -0.0279      2.00000
     25       0.1078      2.00000
     26       0.2154      2.00000
     27       0.3610      2.00000
     28       0.6661      2.00000
     29       0.8722      2.00000
     30       1.2052      2.00000
     31       1.3887      2.00000
     32       1.4350      2.00000
     33       1.5159      2.00000
     34       1.6809      2.00000
     35       1.8015      2.00000
     36       1.8885      2.00000
     37       1.9297      2.00000
     38       2.1646      2.00000
     39       5.4637      0.00000
     40       5.7632      0.00000
     41       6.1968      0.00000
     42       6.3017      0.00000
     43       6.6155      0.00000
     44       7.0994      0.00000
     45       7.1688      0.00000
     46       7.3096      0.00000
     47       8.0822      0.00000
     48       8.5159      0.00000

 k-point     2 :       0.3750    0.1250    0.1250
  band No.  band energies     occupation 
      1     -40.9956      2.00000
      2     -40.9955      2.00000
      3     -40.7235      2.00000
      4     -40.7233      2.00000
      5     -40.7227      2.00000
      6     -40.7225      2.00000
      7     -12.5841      2.00000
      8     -12.5272      2.00000
      9      -9.5886      2.00000
     10      -9.5360      2.00000
     11      -9.4873      2.00000
     12      -9.4117      2.00000
     13      -9.3097      2.00000
     14      -9.2627      2.00000
     15      -5.3812      2.00000
     16      -5.1817      2.00000
     17      -2.5863      2.00000
     18      -2.5698      2.00000
     19      -2.4350      2.00000
     20      -2.2523      2.00000
     21      -2.1708      2.00000
     22      -2.1369      2.00000
     23      -0.0763      2.00000
     24       0.0425      2.00000
     25       0.1766      2.00000
     26       0.2396      2.00000
     27       0.4362      2.00000
     28       0.6300      2.00000
     29       0.9345      2.00000
     30       1.1286      2.00000
     31       1.2047      2.00000
     32       1.3356      2.00000
     33       1.5213      2.00000
     34       1.5767      2.00000
     35       1.7540      2.00000
     36       1.8168      2.00000
     37       1.9483      2.00000
     38       2.0562      2.00000
     39       5.8372      0.00000
     40       6.0315      0.00000
     41       6.3379      0.00000
     42       6.6158      0.00000
     43       6.6845      0.00000
     44       6.9469      0.00000
     45       7.0119      0.00000
     46       7.1778      0.00000
     47       8.2000      0.00000
     48       8.9538      0.00000

 k-point     3 :       0.1250    0.3750    0.1250
  band No.  band energies     occupation 
      1     -40.9955      2.00000
      2     -40.9955      2.00000
      3     -40.7237      2.00000
      4     -40.7231      2.00000
      5     -40.7229      2.00000
      6     -40.7223      2.00000
      7     -12.5768      2.00000
      8     -12.4966      2.00000
      9      -9.7160      2.00000
     10      -9.5564      2.00000
     11      -9.4751      2.00000
     12      -9.3813      2.00000
     13      -9.3352      2.00000
     14      -9.2731      2.00000
     15      -5.3178      2.00000
     16      -5.1065      2.00000
     17      -2.5691      2.00000
     18      -2.4451      2.00000
     19      -2.3324      2.00000
     20      -2.2684      2.00000
     21      -2.1645      2.00000
     22      -2.1292      2.00000
     23      -0.1525      2.00000
     24      -0.0381      2.00000
     25       0.1442      2.00000
     26       0.2727      2.00000
     27       0.4778      2.00000
     28       0.6370      2.00000
     29       0.7717      2.00000
     30       0.9988      2.00000
     31       1.3272      2.00000
     32       1.4055      2.00000
     33       1.5311      2.00000
     34       1.5964      2.00000
     35       1.6974      2.00000
     36       1.9358      2.00000
     37       2.0108      2.00000
     38       2.1847      2.00000
     39       5.0601      0.00000
     40       5.7704      0.00000
     41       6.4779      0.00000
     42       6.5494      0.00000
     43       6.7060      0.00000
     44       6.8492      0.00000
     45       6.9538      0.00000
     46       7.1585      0.00000
     47       8.2958      0.00000
     48       8.7139      0.00000

 k-point     4 :       0.3750    0.3750    0.1250
  band No.  band energies     occupation 
      1     -40.9956      2.00000
      2     -40.9955      2.00000
      3     -40.7235      2.00000
      4     -40.7233      2.00000
      5     -40.7227      2.00000
      6     -40.7225      2.00000
      7     -12.5526      2.00000
      8     -12.5193      2.00000
      9      -9.6984      2.00000
     10      -9.6413      2.00000
     11      -9.4352      2.00000
     12      -9.3977      2.00000
     13      -9.2999      2.00000
     14      -9.2755      2.00000
     15      -5.2241      2.00000
     16      -5.1363      2.00000
     17      -2.5312      2.00000
     18      -2.4539      2.00000
     19      -2.3567      2.00000
     20      -2.2934      2.00000
     21      -2.1637      2.00000
     22      -2.1395      2.00000
     23      -0.2066      2.00000
     24      -0.0618      2.00000
     25       0.1180      2.00000
     26       0.1879      2.00000
     27       0.5617      2.00000
     28       0.7623      2.00000
     29       0.8491      2.00000
     30       0.9783      2.00000
     31       1.1685      2.00000
     32       1.2780      2.00000
     33       1.4177      2.00000
     34       1.5169      2.00000
     35       1.7965      2.00000
     36       1.9764      2.00000
     37       2.0410      2.00000
     38       2.0817      2.00000
     39       5.5564      0.00000
     40       5.9333      0.00000
     41       6.4951      0.00000
     42       6.5782      0.00000
     43       6.7032      0.00000
     44       6.8208      0.00000
     45       7.0455      0.00000
     46       7.3840      0.00000
     47       8.4732      0.00000
     48       8.7306      0.00000

 k-point     5 :       0.1250    0.1250    0.3750
  band No.  band energies     occupation 
      1     -40.9956      2.00000
      2     -40.9955      2.00000
      3     -40.7235      2.00000
      4     -40.7232      2.00000
      5     -40.7229      2.00000
      6     -40.7225      2.00000
      7     -12.5576      2.00000
      8     -12.4990      2.00000
      9      -9.6217      2.00000
     10      -9.5649      2.00000
     11      -9.4863      2.00000
     12      -9.4109      2.00000
     13      -9.3848      2.00000
     14      -9.3393      2.00000
     15      -5.3733      2.00000
     16      -5.1567      2.00000
     17      -2.4328      2.00000
     18      -2.3451      2.00000
     19      -2.2114      2.00000
     20      -2.1734      2.00000
     21      -2.0384      2.00000
     22      -1.9327      2.00000
     23      -0.2548      2.00000
     24      -0.2172      2.00000
     25      -0.0555      2.00000
     26       0.0012      2.00000
     27       0.3221      2.00000
     28       0.5835      2.00000
     29       1.0041      2.00000
     30       1.0506      2.00000
     31       1.2344      2.00000
     32       1.3199      2.00000
     33       1.5814      2.00000
     34       1.6564      2.00000
     35       1.8685      2.00000
     36       1.9678      2.00000
     37       1.9999      2.00000
     38       2.2440      2.00000
     39       5.1068      0.00000
     40       5.4435      0.00000
     41       6.1414      0.00000
     42       6.4638      0.00000
     43       6.8715      0.00000
     44       7.0031      0.00000
     45       7.0618      0.00000
     46       7.3270      0.00000
     47       8.4045      0.00000
     48       8.6716      0.00000

 k-point     6 :       0.3750    0.1250    0.3750
  band No.  band energies     occupation 
      1     -40.9955      2.00000
      2     -40.9955      2.00000
      3     -40.7233      2.00000
      4     -40.7230      2.00000
      5     -40.7230      2.00000
      6     -40.7227      2.00000
      7     -12.5393      2.00000
      8     -12.5150      2.00000
      9      -9.6453      2.00000
     10      -9.6147      2.00000
     11      -9.4741      2.00000
     12      -9.4280      2.00000
     13      -9.3419      2.00000
     14      -9.3128      2.00000
     15      -5.2834      2.00000
     16      -5.1931      2.00000
     17      -2.4382      2.00000
     18      -2.3641      2.00000
     19      -2.2567      2.00000
     20      -2.2157      2.00000
     21      -1.9729      2.00000
     22      -1.9276      2.00000
     23      -0.1893      2.00000
     24      -0.1436      2.00000
     25      -0.0086      2.00000
     26       0.1005      2.00000
     27       0.2818      2.00000
     28       0.4474      2.00000
     29       0.8951      2.00000
     30       1.0138      2.00000
     31       1.1492      2.00000
     32       1.1772      2.00000
     33       1.5749      2.00000
     34       1.6379      2.00000
     35       1.8133      2.00000
     36       1.9520      2.00000
     37       2.0308      2.00000
     38       2.1746      2.00000
     39       5.4227      0.00000
     40       5.6466      0.00000
     41       6.5079      0.00000
     42       6.6842      0.00000
     43       6.8383      0.00000
     44       6.9890      0.00000
     45       7.1694      0.00000
     46       7.3346      0.00000
     47       8.1365      0.00000
     48       8.5720      0.00000

 k-point     7 :       0.1250    0.3750    0.3750
  band No.  band energies     occupation 
      1     -40.9956      2.00000
      2     -40.9955      2.00000
      3     -40.7235      2.00000
      4     -40.7232      2.00000
      5     -40.7229      2.00000
      6     -40.7225      2.00000
      7     -12.5263      2.00000
      8     -12.4920      2.00000
      9      -9.6790      2.00000
     10      -9.6046      2.00000
     11      -9.4809      2.00000
     12      -9.4263      2.00000
     13      -9.4010      2.00000
     14      -9.3724      2.00000
     15      -5.2127      2.00000
     16      -5.1169      2.00000
     17      -2.3396      2.00000
     18      -2.2938      2.00000
     19      -2.2303      2.00000
     20      -2.2077      2.00000
     21      -1.9818      2.00000
     22      -1.9380      2.00000
     23      -0.2113      2.00000
     24      -0.1569      2.00000
     25       0.0281      2.00000
     26       0.0952      2.00000
     27       0.4041      2.00000
     28       0.4702      2.00000
     29       0.9076      2.00000
     30       0.9555      2.00000
     31       1.0575      2.00000
     32       1.2599      2.00000
     33       1.6281      2.00000
     34       1.6933      2.00000
     35       1.8272      2.00000
     36       1.9062      2.00000
     37       2.0316      2.00000
     38       2.1301      2.00000
     39       5.0690      0.00000
     40       5.2794      0.00000
     41       6.2809      0.00000
     42       6.3850      0.00000
     43       6.7568      0.00000
     44       6.7974      0.00000
     45       6.9103      0.00000
     46       7.0898      0.00000
     47       8.1307      0.00000
     48       8.4991      0.00000

 k-point     8 :       0.3750    0.3750    0.3750
  band No.  band energies     occupation 
      1     -40.9956      2.00000
      2     -40.9955      2.00000
      3     -40.7233      2.00000
      4     -40.7230      2.00000
      5     -40.7230      2.00000
      6     -40.7227      2.00000
      7     -12.5151      2.00000
      8     -12.5009      2.00000
      9      -9.6654      2.00000
     10      -9.6305      2.00000
     11      -9.4944      2.00000
     12      -9.4377      2.00000
     13      -9.3939      2.00000
     14      -9.3602      2.00000
     15      -5.1391      2.00000
     16      -5.0991      2.00000
     17      -2.4089      2.00000
     18      -2.3648      2.00000
     19      -2.1649      2.00000
     20      -2.1490      2.00000
     21      -1.9534      2.00000
     22      -1.9381      2.00000
     23      -0.3155      2.00000
     24      -0.2314      2.00000
     25      -0.0153      2.00000
     26       0.0262      2.00000
     27       0.5118      2.00000
     28       0.5593      2.00000
     29       0.7896      2.00000
     30       0.8904      2.00000
     31       1.0584      2.00000
     32       1.1276      2.00000
     33       1.6344      2.00000
     34       1.6953      2.00000
     35       1.8194      2.00000
     36       1.8872      2.00000
     37       2.0570      2.00000
     38       2.1090      2.00000
     39       5.4296      0.00000
     40       5.5971      0.00000
     41       6.3626      0.00000
     42       6.4467      0.00000
     43       6.8147      0.00000
     44       6.8818      0.00000
     45       7.1352      0.00000
     46       7.3538      0.00000
     47       8.0721      0.00000
     48       8.3322      0.00000


--------------------------------------------------------------------------------------------------------


 soft charge-density along one line, spin component           1
         0         1         2         3         4         5         6         7         8         9
 total charge-density along one line
 
 pseudopotential strength for first ion, spin component:           1
 30.065  37.512   0.000  -0.001  -0.000   0.000  -0.002  -0.000
 37.512  46.807   0.000  -0.002  -0.000   0.000  -0.002  -0.000
  0.000   0.000   6.587  -0.000   0.000  10.200  -0.000   0.000
 -0.001  -0.002  -0.000   6.586   0.000  -0.000  10.199   0.000
 -0.000  -0.000   0.000   0.000   6.586   0.000   0.000  10.199
  0.000   0.000  10.200  -0.000   0.000  15.814  -0.001   0.000
 -0.002  -0.002  -0.000  10.199   0.000  -0.001  15.812   0.000
 -0.000  -0.000   0.000   0.000  10.199   0.000   0.000  15.812
 total augmentation occupancy for first ion, spin component:           1
 10.904  -6.211  -0.018  -0.018   0.000  -0.001   0.008   0.000
 -6.211   3.979   0.025   0.008   0.000  -0.001  -0.004   0.000
 -0.018   0.025   4.479  -0.166   0.000  -1.504   0.075   0.000
 -0.018   0.008  -0.166   4.253   0.000   0.075  -1.404   0.000
  0.000   0.000   0.000   0.000   4.371   0.000   0.000  -1.458
 -0.001  -0.001  -1.504   0.075   0.000   0.545  -0.033   0.000
  0.008  -0.004   0.075  -1.404   0.000  -0.033   0.500   0.000
  0.000   0.000   0.000   0.000  -1.458   0.000   0.000   0.524


------------------------ aborting loop because EDIFF is reached ----------------------------------------


    CHARGE:  cpu time    0.0150: real time    0.0150
    FORLOC:  cpu time    0.0008: real time    0.0008
    FORNL :  cpu time    0.0345: real time    0.0347
    STRESS:  cpu time    0.1027: real time    0.1035
    FORCOR:  cpu time    0.0026: real time    0.0026
    FORHAR:  cpu time    0.0022: real time    0.0022
    MIXING:  cpu time    0.0004: real time    0.0004
    OFIELD:  cpu time    0.0000: real time    0.0000

  FORCE on cell =-STRESS in cart. coord.  units (eV):
  Direction    XX          YY          ZZ          XY          YZ          ZX
  --------------------------------------------------------------------------------------
  Alpha Z    68.57190    68.57190    68.57190
  Ewald    -924.35319  -887.24288  -921.15948     0.00000    -0.00000    -0.00000
  Hartree   208.94227   217.50893   222.61014    -0.00000     0.00000    -0.00000
  E(xc)    -277.39998  -277.43381  -277.31998    -0.00000     0.00000    -0.00000
  Local    -634.77498  -675.55099  -651.97515    -0.00000     0.00000     0.00000
  n-local   602.95383   602.91912   600.81923    -0.29838    -0.04938    -0.10460
  augment   -44.87001   -44.83197   -44.80660     0.00000    -0.00000    -0.00000
  Kinetic   999.53194  1000.41461  1002.12323     0.11455    -0.47692     0.13265
  Fock        0.00000     0.00000     0.00000     0.00000     0.00000     0.00000
  -------------------------------------------------------------------------------------
  Total      -1.39823     4.35490    -1.13671     0.00000     0.00000     0.00000
  in kB      -7.78475    24.24616    -6.32871     0.00000     0.00000     0.00000
  external pressure =        3.38 kB  Pullay stress =        0.00 kB


 VOLUME and BASIS-vectors are now :
 -----------------------------------------------------------------------------
  energy-cutoff  :      420.00
  volume of cell :      287.77
      direct lattice vectors                 reciprocal lattice vectors
     7.667166225  0.000000000  0.000000000     0.130426284  0.000000000  0.000000000
     0.000000000  6.222203803  0.000000000     0.000000000  0.160714761  0.000000000
     0.000000000  0.000000000  6.032076935     0.000000000  0.000000000  0.165780379

  length of vectors
     7.667166225  6.222203803  6.032076935     0.130426284  0.160714761  0.165780379


 FORCES acting on ions
    electron-ion (+dipol)            ewald-force                    non-local-force                 convergence-correction
 -----------------------------------------------------------------------------------------------
   0.256E-09 0.102E+01 0.272E+01   0.933E-09 -.849E+00 -.259E+01   0.000E+00 -.605E+00 0.223E+00   0.163E-09 -.106E-02 -.484E-03
   0.568E-08 -.102E+01 0.272E+01   0.243E-08 0.849E+00 -.259E+01   0.000E+00 0.605E+00 0.223E+00   -.168E-09 0.106E-02 -.484E-03
   -.557E+02 0.307E+02 0.193E+02   0.577E+02 -.325E+02 -.200E+02   -.191E+01 0.211E+01 0.217E+00   0.183E-02 -.274E-02 -.402E-03
   0.557E+02 -.307E+02 0.193E+02   -.577E+02 0.325E+02 -.200E+02   0.191E+01 -.211E+01 0.217E+00   -.183E-02 0.274E-02 -.402E-03
   -.557E+02 -.307E+02 0.193E+02   0.577E+02 0.325E+02 -.200E+02   -.191E+01 -.211E+01 0.217E+00   0.183E-02 0.274E-02 -.402E-03
   0.557E+02 0.307E+02 0.193E+02   -.577E+02 -.325E+02 -.200E+02   0.191E+01 0.211E+01 0.217E+00   -.183E-02 -.274E-02 -.402E-03
   -.516E-09 -.652E+02 0.275E+02   -.170E-08 0.674E+02 -.282E+02   0.000E+00 -.211E+01 0.852E+00   0.205E-09 0.418E-02 -.150E-02
   0.157E-07 0.652E+02 0.275E+02   0.538E-08 -.674E+02 -.282E+02   0.000E+00 0.211E+01 0.852E+00   -.206E-09 -.418E-02 -.150E-02
   -.551E-09 0.145E+02 -.573E+02   -.153E-08 -.143E+02 0.601E+02   0.000E+00 -.437E+00 -.283E+01   0.203E-09 -.219E-02 0.217E-02
   0.156E-07 -.145E+02 -.573E+02   0.557E-08 0.143E+02 0.601E+02   0.000E+00 0.437E+00 -.283E+01   -.207E-09 0.219E-02 0.217E-02
   -.337E-09 -.200E+02 0.265E+00   -.265E-08 0.186E+02 -.590E-01   0.000E+00 0.165E+01 0.150E-02   0.102E-09 0.108E-02 0.585E-03
   0.120E-07 0.200E+02 0.265E+00   0.423E-08 -.186E+02 -.590E-01   0.000E+00 -.165E+01 0.150E-02   -.101E-09 -.108E-02 0.585E-03
   0.191E+00 -.491E+00 -.553E+01   -.822E-01 0.428E+00 0.535E+01   -.108E+00 0.387E+00 0.333E+00   0.228E-03 -.847E-03 -.267E-03
   -.191E+00 0.491E+00 -.553E+01   0.822E-01 -.428E+00 0.535E+01   0.108E+00 -.387E+00 0.333E+00   -.228E-03 0.847E-03 -.267E-03
   0.191E+00 0.491E+00 -.553E+01   -.822E-01 -.428E+00 0.535E+01   -.108E+00 -.387E+00 0.333E+00   0.228E-03 0.847E-03 -.267E-03
   -.191E+00 -.491E+00 -.553E+01   0.822E-01 0.428E+00 0.535E+01   0.108E+00 0.387E+00 0.333E+00   -.228E-03 -.847E-03 -.267E-03
 -----------------------------------------------------------------------------------------------
   0.103E-07 0.952E-07 0.132E+01   0.133E-13 -.313E-13 0.453E-13   -.222E-15 0.389E-15 -.132E+01   -.406E-11 0.861E-11 -.112E-02
 
 
 POSITION                                       TOTAL-FORCE (eV/Angst)
 -----------------------------------------------------------------------------------
      0.00000      2.05960      1.80019         0.000000     -0.436768      0.343879
      3.83358      4.16261      4.81623         0.000000      0.436768      0.343879
      1.67289      1.05464      1.22212         0.026718      0.271528     -0.489888
      2.16070      5.16756      4.23816        -0.026718     -0.271528     -0.489888
      5.50647      5.16756      4.23816         0.026718     -0.271528     -0.489888
      5.99428      1.05464      1.22212        -0.026718      0.271528     -0.489888
      0.00000      3.92841      1.05460         0.000000      0.132730      0.095917
      3.83358      2.29379      4.07064         0.000000     -0.132730      0.095917
      0.00000      2.01273      3.84722         0.000000     -0.301430      0.011601
      3.83358      4.20948      0.83118         0.000000      0.301430      0.011601
      0.00000      4.09755      4.65907         0.000000      0.260574      0.208077
      3.83358      2.12465      1.64303         0.000000     -0.260574      0.208077
      1.93487      1.11830      4.83941         0.000569      0.323748      0.160151
      1.89871      5.10390      1.82337        -0.000569     -0.323748      0.160151
      5.76845      5.10390      1.82337         0.000569     -0.323748      0.160151
      5.73230      1.11830      4.83941        -0.000569      0.323748      0.160151
[...]
     17      -2.6154      2.00000
     18      -2.4755      2.00000
     19      -2.3421      2.00000
     20      -2.2883      2.00000
     21      -2.1297      2.00000
     22      -2.1234      2.00000
     23      -0.1668      2.00000
     24      -0.0433      2.00000
     25       0.1060      2.00000
     26       0.2317      2.00000
     27       0.4764      2.00000
     28       0.6817      2.00000
     29       0.7905      2.00000
     30       0.9973      2.00000
     31       1.2633      2.00000
     32       1.3814      2.00000
     33       1.4727      2.00000
     34       1.5535      2.00000
     35       1.6158      2.00000
     36       1.8472      2.00000
     37       1.9273      2.00000
     38       2.1716      2.00000
     39       5.0668      0.00000
     40       5.7605      0.00000
     41       6.4421      0.00000
     42       6.5517      0.00000
     43       6.6372      0.00000
     44       6.8050      0.00000
     45       6.9508      0.00000
     46       7.0644      0.00000
     47       8.2971      0.00000
     48       8.5463      0.00000

 k-point     4 :       0.3750    0.3750    0.1250
  band No.  band energies     occupation 
      1     -41.0779      2.00000
      2     -41.0779      2.00000
      3     -40.7029      2.00000
      4     -40.7026      2.00000
      5     -40.7022      2.00000
      6     -40.7018      2.00000
      7     -12.5530      2.00000
      8     -12.5230      2.00000
      9      -9.6491      2.00000
     10      -9.6141      2.00000
     11      -9.4519      2.00000
     12      -9.4130      2.00000
     13      -9.3697      2.00000
     14      -9.3539      2.00000
     15      -5.2659      2.00000
     16      -5.1829      2.00000
     17      -2.5656      2.00000
     18      -2.4794      2.00000
     19      -2.3784      2.00000
     20      -2.3186      2.00000
     21      -2.1363      2.00000
     22      -2.1241      2.00000
     23      -0.2160      2.00000
     24      -0.0930      2.00000
     25       0.0641      2.00000
     26       0.2097      2.00000
     27       0.5725      2.00000
     28       0.7762      2.00000
     29       0.8844      2.00000
     30       0.9616      2.00000
     31       1.1391      2.00000
     32       1.2183      2.00000
     33       1.3282      2.00000
     34       1.4374      2.00000
     35       1.7529      2.00000
     36       1.8934      2.00000
     37       1.9593      2.00000
     38       2.0231      2.00000
     39       5.5303      0.00000
     40       5.8921      0.00000
     41       6.5135      0.00000
     42       6.5551      0.00000
     43       6.7046      0.00000
     44       6.8140      0.00000
     45       7.0800      0.00000
     46       7.1881      0.00000
     47       8.4667      0.00000
     48       8.5643      0.00000

 k-point     5 :       0.1250    0.1250    0.3750
  band No.  band energies     occupation 
      1     -41.0779      2.00000
      2     -41.0779      2.00000
      3     -40.7029      2.00000
      4     -40.7026      2.00000
      5     -40.7021      2.00000
      6     -40.7018      2.00000
      7     -12.5531      2.00000
      8     -12.4946      2.00000
      9      -9.6148      2.00000
     10      -9.5545      2.00000
     11      -9.5027      2.00000
     12      -9.4435      2.00000
     13      -9.4272      2.00000
     14      -9.4064      2.00000
     15      -5.3869      2.00000
     16      -5.1767      2.00000
     17      -2.4424      2.00000
     18      -2.3546      2.00000
     19      -2.2074      2.00000
     20      -2.1773      2.00000
     21      -2.0817      2.00000
     22      -1.9829      2.00000
     23      -0.2635      2.00000
     24      -0.2223      2.00000
     25      -0.0825      2.00000
     26      -0.0094      2.00000
     27       0.2836      2.00000
     28       0.5569      2.00000
     29       0.9641      2.00000
     30       1.0144      2.00000
     31       1.1756      2.00000
     32       1.3203      2.00000
     33       1.6114      2.00000
     34       1.6988      2.00000
     35       1.8326      2.00000
     36       1.8955      2.00000
     37       1.9683      2.00000
     38       2.1276      2.00000
     39       5.0868      0.00000
     40       5.4648      0.00000
     41       6.1810      0.00000
     42       6.4538      0.00000
     43       6.7903      0.00000
     44       6.9151      0.00000
     45       7.0176      0.00000
     46       7.2593      0.00000
     47       8.2474      0.00000
     48       8.5470      0.00000

 k-point     6 :       0.3750    0.1250    0.3750
  band No.  band energies     occupation 
      1     -41.0779      2.00000
      2     -41.0779      2.00000
      3     -40.7027      2.00000
      4     -40.7025      2.00000
      5     -40.7023      2.00000
      6     -40.7021      2.00000
      7     -12.5344      2.00000
      8     -12.5101      2.00000
      9      -9.6463      2.00000
     10      -9.6191      2.00000
     11      -9.4719      2.00000
     12      -9.4348      2.00000
     13      -9.4072      2.00000
     14      -9.3849      2.00000
     15      -5.2907      2.00000
     16      -5.2031      2.00000
     17      -2.4589      2.00000
     18      -2.4075      2.00000
     19      -2.2177      2.00000
     20      -2.2060      2.00000
     21      -2.0118      2.00000
     22      -1.9655      2.00000
     23      -0.2398      2.00000
     24      -0.2022      2.00000
     25      -0.0140      2.00000
     26       0.1013      2.00000
     27       0.2883      2.00000
     28       0.4408      2.00000
     29       0.8925      2.00000
     30       0.9790      2.00000
     31       1.0943      2.00000
     32       1.1244      2.00000
     33       1.5664      2.00000
     34       1.6237      2.00000
     35       1.7962      2.00000
     36       1.9086      2.00000
     37       1.9561      2.00000
     38       2.0658      2.00000
     39       5.4081      0.00000
     40       5.6394      0.00000
     41       6.5555      0.00000
     42       6.6672      0.00000
     43       6.8425      0.00000
     44       6.9433      0.00000
     45       7.1413      0.00000
     46       7.2405      0.00000
     47       8.1811      0.00000
     48       8.4638      0.00000

 k-point     7 :       0.1250    0.3750    0.3750
  band No.  band energies     occupation 
      1     -41.0779      2.00000
      2     -41.0779      2.00000
      3     -40.7029      2.00000
      4     -40.7026      2.00000
      5     -40.7021      2.00000
      6     -40.7018      2.00000
      7     -12.5243      2.00000
      8     -12.4932      2.00000
      9      -9.6312      2.00000
     10      -9.5789      2.00000
     11      -9.5166      2.00000
     12      -9.4765      2.00000
     13      -9.4440      2.00000
     14      -9.4296      2.00000
     15      -5.2518      2.00000
     16      -5.1609      2.00000
     17      -2.3470      2.00000
     18      -2.2959      2.00000
     19      -2.2239      2.00000
     20      -2.1930      2.00000
     21      -2.0227      2.00000
     22      -1.9776      2.00000
     23      -0.2106      2.00000
     24      -0.1444      2.00000
     25      -0.0105      2.00000
     26       0.0622      2.00000
     27       0.3811      2.00000
     28       0.4353      2.00000
     29       0.8903      2.00000
     30       0.9347      2.00000
     31       1.0161      2.00000
     32       1.2292      2.00000
     33       1.5765      2.00000
     34       1.6844      2.00000
     35       1.7436      2.00000
     36       1.8701      2.00000
     37       1.9965      2.00000
     38       2.0519      2.00000
     39       5.0653      0.00000
     40       5.2776      0.00000
     41       6.3328      0.00000
     42       6.4539      0.00000
     43       6.6354      0.00000
     44       6.7899      0.00000
     45       6.8727      0.00000
     46       6.9439      0.00000
     47       8.1913      0.00000
     48       8.4512      0.00000

 k-point     8 :       0.3750    0.3750    0.3750
  band No.  band energies     occupation 
      1     -41.0779      2.00000
      2     -41.0779      2.00000
      3     -40.7027      2.00000
      4     -40.7025      2.00000
      5     -40.7023      2.00000
      6     -40.7021      2.00000
      7     -12.5136      2.00000
      8     -12.5007      2.00000
      9      -9.6115      2.00000
     10      -9.5746      2.00000
     11      -9.5528      2.00000
     12      -9.4893      2.00000
     13      -9.4491      2.00000
     14      -9.4244      2.00000
     15      -5.1705      2.00000
     16      -5.1325      2.00000
     17      -2.4055      2.00000
     18      -2.3682      2.00000
     19      -2.1525      2.00000
     20      -2.1474      2.00000
     21      -1.9899      2.00000
     22      -1.9684      2.00000
     23      -0.3246      2.00000
     24      -0.2337      2.00000
     25      -0.0915      2.00000
     26      -0.0313      2.00000
     27       0.5022      2.00000
     28       0.5535      2.00000
     29       0.7941      2.00000
     30       0.9031      2.00000
     31       1.0097      2.00000
     32       1.1109      2.00000
     33       1.5398      2.00000
     34       1.6056      2.00000
     35       1.7747      2.00000
     36       1.8308      2.00000
     37       2.0013      2.00000
     38       2.0671      2.00000
     39       5.3803      0.00000
     40       5.5408      0.00000
     41       6.4557      0.00000
     42       6.5108      0.00000
     43       6.7893      0.00000
     44       6.9074      0.00000
     45       7.1372      0.00000
     46       7.2139      0.00000
     47       8.1474      0.00000
     48       8.3323      0.00000


--------------------------------------------------------------------------------------------------------


 soft charge-density along one line, spin component           1
         0         1         2         3         4         5         6         7         8         9
 total charge-density along one line
 
 pseudopotential strength for first ion, spin component:           1
 30.070  37.519  -0.000  -0.000  -0.000  -0.001  -0.000  -0.000
 37.519  46.816  -0.001  -0.000  -0.000  -0.001  -0.000  -0.000
 -0.000  -0.001   6.588  -0.000   0.000  10.201  -0.000   0.000
 -0.000  -0.000  -0.000   6.587   0.000  -0.000  10.201   0.000
 -0.000  -0.000   0.000   0.000   6.587   0.000   0.000  10.200
 -0.001  -0.001  10.201  -0.000   0.000  15.815  -0.000   0.000
 -0.000  -0.000  -0.000  10.201   0.000  -0.000  15.814   0.000
 -0.000  -0.000   0.000   0.000  10.200   0.000   0.000  15.814
 total augmentation occupancy for first ion, spin component:           1
 10.801  -6.143  -0.030  -0.021   0.000   0.013   0.009   0.000
 -6.143   3.937   0.023   0.015   0.000  -0.009  -0.006   0.000
 -0.030   0.023   4.336  -0.053   0.000  -1.441   0.025   0.000
 -0.021   0.015  -0.053   4.322   0.000   0.025  -1.435   0.000
  0.000   0.000   0.000   0.000   4.356   0.000   0.000  -1.449
  0.013  -0.009  -1.441   0.025   0.000   0.517  -0.011   0.000
  0.009  -0.006   0.025  -1.435   0.000  -0.011   0.514   0.000
  0.000   0.000   0.000   0.000  -1.449   0.000   0.000   0.521


------------------------ aborting loop because EDIFF is reached ----------------------------------------


    CHARGE:  cpu time    0.0149: real time    0.0149
    FORLOC:  cpu time    0.0010: real time    0.0010
    FORNL :  cpu time    0.0343: real time    0.0343
    STRESS:  cpu time    0.1019: real time    0.1019
    FORCOR:  cpu time    0.0026: real time    0.0026
    FORHAR:  cpu time    0.0024: real time    0.0024
    MIXING:  cpu time    0.0003: real time    0.0003
    OFIELD:  cpu time    0.0000: real time    0.0000

  FORCE on cell =-STRESS in cart. coord.  units (eV):
  Direction    XX          YY          ZZ          XY          YZ          ZX
  --------------------------------------------------------------------------------------
  Alpha Z    68.38119    68.38119    68.38119
  Ewald    -913.50784  -939.01983  -878.85077     0.00000    -0.00000    -0.00000
  Hartree   211.47438   198.89970   238.36815    -0.00000     0.00000    -0.00000
  E(xc)    -277.27764  -277.22752  -277.22530    -0.00000     0.00000    -0.00000
  Local    -646.94254  -608.03040  -707.16091    -0.00000     0.00000     0.00000
  n-local   603.34010   601.71414   602.03348    -0.32416    -0.06833    -0.10607
  augment   -44.82437   -44.69632   -44.64035     0.00000     0.00000     0.00000
  Kinetic   999.38689   999.87298   999.09401     0.09422    -0.47910     0.16996
  Fock        0.00000     0.00000     0.00000     0.00000     0.00000     0.00000
  -------------------------------------------------------------------------------------
  Total       0.03017    -0.10606    -0.00051     0.00000     0.00000     0.00000
  in kB       0.16752    -0.58883    -0.00282     0.00000     0.00000     0.00000
  external pressure =       -0.14 kB  Pullay stress =        0.00 kB


 VOLUME and BASIS-vectors are now :
 -----------------------------------------------------------------------------
  energy-cutoff  :      420.00
  volume of cell :      288.57
      direct lattice vectors                 reciprocal lattice vectors
     7.580224169  0.000000000  0.000000000     0.131922220  0.000000000  0.000000000
     0.000000000  6.333472612  0.000000000     0.000000000  0.157891265  0.000000000
     0.000000000  0.000000000  6.010790770     0.000000000  0.000000000  0.166367461

  length of vectors
     7.580224169  6.333472612  6.010790770     0.131922220  0.157891265  0.166367461


 FORCES acting on ions
    electron-ion (+dipol)            ewald-force                    non-local-force                 convergence-correction
 -----------------------------------------------------------------------------------------------
   0.268E-09 0.290E+01 -.363E+00   0.960E-09 -.281E+01 0.335E+00   0.000E+00 -.733E-01 0.335E-01   -.136E-11 -.144E-02 0.305E-02
   0.562E-08 -.290E+01 -.363E+00   0.232E-08 0.281E+01 0.335E+00   0.000E+00 0.733E-01 0.335E-01   0.476E-12 0.144E-02 0.305E-02
   -.571E+02 0.328E+02 0.176E+02   0.590E+02 -.344E+02 -.185E+02   -.186E+01 0.162E+01 0.946E+00   0.197E-02 -.821E-02 -.245E-02
   0.571E+02 -.328E+02 0.176E+02   -.590E+02 0.344E+02 -.185E+02   0.186E+01 -.162E+01 0.946E+00   -.197E-02 0.821E-02 -.245E-02
   -.571E+02 -.328E+02 0.176E+02   0.590E+02 0.344E+02 -.185E+02   -.186E+01 -.162E+01 0.946E+00   0.197E-02 0.821E-02 -.245E-02
   0.571E+02 0.328E+02 0.176E+02   -.590E+02 -.344E+02 -.185E+02   0.186E+01 0.162E+01 0.946E+00   -.197E-02 -.821E-02 -.245E-02
   -.509E-09 -.623E+02 0.245E+02   -.163E-08 0.649E+02 -.254E+02   0.000E+00 -.260E+01 0.854E+00   -.701E-12 0.583E-02 -.144E-02
   0.154E-07 0.623E+02 0.245E+02   0.531E-08 -.649E+02 -.254E+02   0.000E+00 0.260E+01 0.854E+00   0.159E-11 -.583E-02 -.144E-02
   -.569E-09 0.920E+01 -.560E+02   -.130E-08 -.937E+01 0.589E+02   0.000E+00 0.166E+00 -.286E+01   -.133E-11 -.207E-02 0.555E-03
   0.152E-07 -.920E+01 -.560E+02   0.568E-08 0.937E+01 0.589E+02   0.000E+00 -.166E+00 -.286E+01   0.356E-12 0.207E-02 0.555E-03
   -.317E-09 -.153E+02 0.156E+01   -.252E-08 0.143E+02 -.129E+01   0.000E+00 0.948E+00 -.266E+00   -.164E-12 -.131E-03 0.129E-02
   0.117E-07 0.153E+02 0.156E+01   0.395E-08 -.143E+02 -.129E+01   0.000E+00 -.948E+00 -.266E+00   0.457E-12 0.131E-03 0.129E-02
   -.278E+01 0.396E+01 -.239E+01   0.266E+01 -.384E+01 0.228E+01   0.124E+00 -.115E+00 0.115E+00   0.241E-03 -.429E-02 0.231E-02
   0.278E+01 -.396E+01 -.239E+01   -.266E+01 0.384E+01 0.228E+01   -.124E+00 0.115E+00 0.115E+00   -.241E-03 0.429E-02 0.231E-02
   -.278E+01 -.396E+01 -.239E+01   0.266E+01 0.384E+01 0.228E+01   0.124E+00 0.115E+00 0.115E+00   0.241E-03 0.429E-02 0.231E-02
   0.278E+01 0.396E+01 -.239E+01   -.266E+01 -.384E+01 0.228E+01   -.124E+00 -.115E+00 0.115E+00   -.241E-03 -.429E-02 0.231E-02
 -----------------------------------------------------------------------------------------------
   0.986E-08 0.934E-07 0.239E+00   0.133E-13 -.253E-13 0.666E-14   0.222E-15 0.139E-16 -.232E+00   0.384E-12 -.926E-12 0.634E-02
 
 
 POSITION                                       TOTAL-FORCE (eV/Angst)
 -----------------------------------------------------------------------------------
      0.00000      2.02282      1.80576         0.000000      0.011522      0.007813
      3.79011      4.31065      4.81115         0.000000     -0.011522      0.007813
      1.66912      1.06903      1.13707         0.006384     -0.004187     -0.001675
      2.12099      5.26444      4.14247        -0.006384      0.004187     -0.001675
      5.45923      5.26444      4.14247         0.006384      0.004187     -0.001675
      5.91110      1.06903      1.13707        -0.006384     -0.004187     -0.001675
      0.00000      3.93561      1.11573         0.000000     -0.042456      0.006166
      3.79011      2.39787      4.12112         0.000000      0.042456      0.006166
      0.00000      1.97596      3.84385         0.000000     -0.003204     -0.019823
      3.79011      4.35752      0.83846         0.000000      0.003204     -0.019823
      0.00000      4.16312      4.73282         0.000000     -0.019984     -0.002735
      3.79011      2.17036      1.72743         0.000000      0.019984     -0.002735
      1.93945      1.18113      4.81448         0.006400     -0.005858      0.005964
      1.85067      5.15234      1.80909        -0.006400      0.005858      0.005964
      5.72956      5.15234      1.80909         0.006400      0.005858      0.005964
      5.64078      1.18113      4.81448        -0.006400     -0.005858      0.005964
 -----------------------------------------------------------------------------------
    total drift:                                0.000000      0.000000      0.013115


--------------------------------------------------------------------------------------------------------



  FREE ENERGIE OF THE ION-ELECTRON SYSTEM (eV)
  ---------------------------------------------------
  free  energy   TOTEN  =       -77.40017244 eV

  energy  without entropy=      -77.40017244  energy(sigma->0) =      -77.40017244
 
 d Force = 0.7012817E-04[ 0.574E-04, 0.829E-04]  d Energy = 0.1549190E-04 0.546E-04
 d Force =-0.5385862E-02[-0.538E-02,-0.539E-02]  d Ewald  =-0.3288985E+00 0.324E+00


--------------------------------------------------------------------------------------------------------


    POTLOK:  cpu time    0.0034: real time    0.0034


--------------------------------------------------------------------------------------------------------




--------------------------------------------------------------------------------------------------------


  
 reached required accuracy - stopping structural energy minimisation
     LOOP+:  cpu time    0.6333: real time    0.6396
    4ORBIT:  cpu time    0.0000: real time    0.0000
 BZINTS: Fermi energy:  2.199596; 76.000000 electrons
         Band energy:-670.396912;  BLOECHL correction:  0.000000

 total amount of memory used by VASP MPI-rank0    33568. kBytes
=======================================================================

   base      :      30000. kBytes
   nonlr-proj:       1210. kBytes
   fftplans  :        656. kBytes
   grid      :       1147. kBytes
   one-center:          3. kBytes
   wavefun   :        552. kBytes
 
  
  
 General timing and accounting informations for this job:
 ========================================================
  
                  Total CPU time used (sec):       31.934
                            User time (sec):       31.461
                          System time (sec):        0.472
                         Elapsed time (sec):       33.267
  
                   Maximum memory used (kb):      154688.
                   Average memory used (kb):           0.
  
                          Minor page faults:        42593
                          Major page faults:           93
                 Voluntary context switches:         2663
