<?xml version="1.0" encoding="ISO-8859-1"?>
<modeling>
 <generator>
  <i name="program" type="string">vasp </i>
  <i name="version" type="string">5.4.4.18Apr17-6-g9f103f2a35  </i>
  <i name="subversion" type="string">(build Feb 28 2020 14:15:47) complex            parallel </i>
  <i name="platform" type="string">LinuxIFC </i>
  <i name="date" type="string">2022 08 06 </i>
  <i name="time" type="string">21:59:00 </i>
 </generator>
 <incar>
  <i type="int" name="ISTART">     0</i>
  <i type="string" name="PREC">accurate</i>
  <i type="string" name="ALGO"> FAST</i>
  <i type="int" name="ISPIN">     1</i>
  <i type="int" name="ICHARG">     2</i>
  <i type="int" name="INIWAV">     1</i>
  <i type="int" name="NELM">   100</i>
  <i type="int" name="IBRION">     2</i>
  <i name="EDIFF">      0.00002000</i>
  <i name="EDIFFG">      0.00020000</i>
  <i type="int" name="NSW">   100</i>
  <i type="int" name="ISIF">     3</i>
  <i name="ENCUT">    420.00000000</i>
  <i type="string" name="LREAL"> AUTO</i>
  <i type="int" name="ISMEAR">    -5</i>
  <i type="logical" name="LWAVE"> F  </i>
  <i type="logical" name="LCHARG"> F  </i>
  <v type="int" name="KPOINT_BSE">    -1     0     0     0</v>
  <i type="int" name="NELM">   100</i>
 </incar>
 <structure name="primitive_cell" >
  <crystal>
   <varray name="basis" >
    <v>       7.66716623       0.00000000       0.00000000 </v>
    <v>       0.00000000       6.22220380       0.00000000 </v>
    <v>       0.00000000       0.00000000       6.03207693 </v>
   </varray>
   <i name="volume">    287.77030882 </i>
   <varray name="rec_basis" >
    <v>       0.13042628       0.00000000       0.00000000 </v>
    <v>       0.00000000       0.16071476       0.00000000 </v>
    <v>       0.00000000       0.00000000       0.16578038 </v>
   </varray>
  </crystal>
  <varray name="positions" >
   <v>       0.00000000       0.33100749       0.29843656 </v>
   <v>       0.00000000      -0.36864612       0.17483226 </v>
   <v>      -0.21818844       0.16949605       0.20260341 </v>
   <v>       0.21818844       0.16949605       0.20260341 </v>
   <v>       0.00000000       0.32347468      -0.36220629 </v>
   <v>       0.00000000      -0.34146293      -0.22761740 </v>
   <v>      -0.24764221      -0.17972799       0.30227929 </v>
   <v>       0.24764221      -0.17972799       0.30227929 </v>
   <v>      -0.25235779       0.17972799      -0.19772071 </v>
   <v>       0.25235779       0.17972799      -0.19772071 </v>
   <v>       0.50000000       0.34146293       0.27238260 </v>
   <v>       0.50000000       0.36864612      -0.32516774 </v>
   <v>       0.50000000      -0.32347468       0.13779371 </v>
   <v>       0.28181156      -0.16949605      -0.29739659 </v>
   <v>      -0.28181156      -0.16949605      -0.29739659 </v>
   <v>       0.50000000      -0.33100749      -0.20156344 </v>
  </varray>
 </structure>
 <varray name="primitive_index" >
  <v type="int" >        1 </v>
  <v type="int" >        7 </v>
  <v type="int" >        6 </v>
  <v type="int" >        3 </v>
  <v type="int" >        9 </v>
  <v type="int" >       11 </v>
  <v type="int" >       15 </v>
  <v type="int" >       14 </v>
  <v type="int" >       16 </v>
  <v type="int" >       13 </v>
  <v type="int" >       12 </v>
  <v type="int" >        8 </v>
  <v type="int" >       10 </v>
  <v type="int" >        4 </v>
  <v type="int" >        5 </v>
  <v type="int" >        2 </v>
 </varray>
 <kpoints>
  <generation param="Monkhorst-Pack">
   <v type="int" name="divisions">       4        4        4 </v>
   <v name="usershift">      0.00000000       0.00000000       0.00000000 </v>
   <v name="genvec1">      0.25000000       0.00000000       0.00000000 </v>
   <v name="genvec2">      0.00000000       0.25000000       0.00000000 </v>
   <v name="genvec3">      0.00000000       0.00000000       0.25000000 </v>
   <v name="shift">      0.50000000       0.50000000       0.50000000 </v>
  </generation>
  <varray name="kpointlist" >
   <v>       0.12500000       0.12500000       0.12500000 </v>
   <v>       0.37500000       0.12500000       0.12500000 </v>
   <v>       0.12500000       0.37500000       0.12500000 </v>
   <v>       0.37500000       0.37500000       0.12500000 </v>
   <v>       0.12500000       0.12500000       0.37500000 </v>
   <v>       0.37500000       0.12500000       0.37500000 </v>
   <v>       0.12500000       0.37500000       0.37500000 </v>
   <v>       0.37500000       0.37500000       0.37500000 </v>
  </varray>
  <varray name="weights" >
   <v>       0.12500000 </v>
   <v>       0.12500000 </v>
   <v>       0.12500000 </v>
   <v>       0.12500000 </v>
   <v>       0.12500000 </v>
   <v>       0.12500000 </v>
   <v>       0.12500000 </v>
   <v>       0.12500000 </v>
  </varray>
  <varray name="tetrahedronlist"  type="int" >
   <v type="int" >        2        1        2        4        5 </v>
   <v type="int" >        2        1        3        4        5 </v>
   <v type="int" >        2        3        4        5        7 </v>
   <v type="int" >        2        2        4        5        6 </v>
   <v type="int" >        2        4        5        6        8 </v>
   <v type="int" >        2        4        5        7        8 </v>
   <v type="int" >        2        2        2        4        6 </v>
   <v type="int" >        2        2        4        4        6 </v>
   <v type="int" >        2        4        4        6        8 </v>
   <v type="int" >        2        2        4        6        6 </v>
   <v type="int" >        2        4        6        6        8 </v>
   <v type="int" >        2        4        6        8        8 </v>
   <v type="int" >        2        1        2        3        6 </v>
   <v type="int" >        2        2        3        4        6 </v>
   <v type="int" >        2        3        4        6        8 </v>
   <v type="int" >        2        1        3        5        6 </v>
   <v type="int" >        2        3        5        6        7 </v>
   <v type="int" >        2        3        6        7        8 </v>
   <v type="int" >        2        1        1        3        5 </v>
   <v type="int" >        2        1        3        3        5 </v>
   <v type="int" >        2        3        3        5        7 </v>
   <v type="int" >        2        1        3        5        5 </v>
   <v type="int" >        2        3        5        5        7 </v>
   <v type="int" >        2        3        5        7        7 </v>
   <v type="int" >        2        3        4        4        7 </v>
   <v type="int" >        2        3        3        4        7 </v>
   <v type="int" >        2        3        4        7        7 </v>
   <v type="int" >        2        4        4        7        8 </v>
   <v type="int" >        2        4        7        8        8 </v>
   <v type="int" >        2        4        7        7        8 </v>
   <v type="int" >        4        4        4        4        8 </v>
   <v type="int" >        4        4        4        8        8 </v>
   <v type="int" >        4        4        8        8        8 </v>
   <v type="int" >        2        3        3        4        8 </v>
   <v type="int" >        2        3        4        4        8 </v>
   <v type="int" >        2        3        4        8        8 </v>
   <v type="int" >        2        3        3        7        8 </v>
   <v type="int" >        2        3        7        7        8 </v>
   <v type="int" >        2        3        7        8        8 </v>
   <v type="int" >        4        3        3        3        7 </v>
   <v type="int" >        4        3        3        7        7 </v>
   <v type="int" >        4        3        7        7        7 </v>
   <v type="int" >        2        2        3        4        7 </v>
   <v type="int" >        2        1        2        3        7 </v>
   <v type="int" >        2        1        2        5        7 </v>
   <v type="int" >        2        2        4        7        8 </v>
   <v type="int" >        2        2        6        7        8 </v>
   <v type="int" >        2        2        5        6        7 </v>
   <v type="int" >        2        2        4        4        8 </v>
   <v type="int" >        2        2        2        4        8 </v>
   <v type="int" >        2        2        2        6        8 </v>
   <v type="int" >        2        2        4        8        8 </v>
   <v type="int" >        2        2        6        8        8 </v>
   <v type="int" >        2        2        6        6        8 </v>
   <v type="int" >        2        1        3        4        8 </v>
   <v type="int" >        2        1        2        4        8 </v>
   <v type="int" >        2        1        2        6        8 </v>
   <v type="int" >        2        1        3        7        8 </v>
   <v type="int" >        2        1        5        7        8 </v>
   <v type="int" >        2        1        5        6        8 </v>
   <v type="int" >        2        1        3        3        7 </v>
   <v type="int" >        2        1        1        3        7 </v>
   <v type="int" >        2        1        1        5        7 </v>
   <v type="int" >        2        1        3        7        7 </v>
   <v type="int" >        2        1        5        7        7 </v>
   <v type="int" >        2        1        5        5        7 </v>
   <v type="int" >        2        1        2        2        5 </v>
   <v type="int" >        2        1        1        2        5 </v>
   <v type="int" >        2        1        2        5        5 </v>
   <v type="int" >        2        2        2        5        6 </v>
   <v type="int" >        2        2        5        6        6 </v>
   <v type="int" >        2        2        5        5        6 </v>
   <v type="int" >        4        2        2        2        6 </v>
   <v type="int" >        4        2        2        6        6 </v>
   <v type="int" >        4        2        6        6        6 </v>
   <v type="int" >        2        1        1        2        6 </v>
   <v type="int" >        2        1        2        2        6 </v>
   <v type="int" >        2        1        2        6        6 </v>
   <v type="int" >        2        1        1        5        6 </v>
   <v type="int" >        2        1        5        5        6 </v>
   <v type="int" >        2        1        5        6        6 </v>
   <v type="int" >        4        1        1        1        5 </v>
   <v type="int" >        4        1        1        5        5 </v>
   <v type="int" >        4        1        5        5        5 </v>
   <v type="int" >        2        5        5        6        8 </v>
   <v type="int" >        2        5        5        7        8 </v>
   <v type="int" >        2        5        7        7        8 </v>
   <v type="int" >        2        5        6        6        8 </v>
   <v type="int" >        2        5        6        8        8 </v>
   <v type="int" >        2        5        7        8        8 </v>
   <v type="int" >        4        6        6        6        8 </v>
   <v type="int" >        4        6        6        8        8 </v>
   <v type="int" >        4        6        8        8        8 </v>
   <v type="int" >        2        5        6        6        7 </v>
   <v type="int" >        2        6        6        7        8 </v>
   <v type="int" >        2        6        7        8        8 </v>
   <v type="int" >        2        5        5        6        7 </v>
   <v type="int" >        2        5        6        7        7 </v>
   <v type="int" >        2        6        7        7        8 </v>
   <v type="int" >        4        5        5        5        7 </v>
   <v type="int" >        4        5        5        7        7 </v>
   <v type="int" >        4        5        7        7        7 </v>
   <v type="int" >        4        7        7        8        8 </v>
   <v type="int" >        4        7        7        7        8 </v>
   <v type="int" >        4        7        8        8        8 </v>
   <v type="int" >        6        8        8        8        8 </v>
   <v type="int" >        6        7        7        7        7 </v>
   <v type="int" >        4        5        5        6        6 </v>
   <v type="int" >        4        5        5        5        6 </v>
   <v type="int" >        4        5        6        6        6 </v>
   <v type="int" >        6        6        6        6        6 </v>
   <v type="int" >        6        5        5        5        5 </v>
   <v type="int" >        2        1        1        2        4 </v>
   <v type="int" >        2        1        1        3        4 </v>
   <v type="int" >        2        1        3        3        4 </v>
   <v type="int" >        2        1        2        2        4 </v>
   <v type="int" >        2        1        2        4        4 </v>
   <v type="int" >        2        1        3        4        4 </v>
   <v type="int" >        4        2        2        2        4 </v>
   <v type="int" >        4        2        2        4        4 </v>
   <v type="int" >        4        2        4        4        4 </v>
   <v type="int" >        2        1        2        2        3 </v>
   <v type="int" >        2        2        2        3        4 </v>
   <v type="int" >        2        2        3        4        4 </v>
   <v type="int" >        2        1        1        2        3 </v>
   <v type="int" >        2        1        2        3        3 </v>
   <v type="int" >        2        2        3        3        4 </v>
   <v type="int" >        4        1        1        1        3 </v>
   <v type="int" >        4        1        1        3        3 </v>
   <v type="int" >        4        1        3        3        3 </v>
   <v type="int" >        4        3        3        4        4 </v>
   <v type="int" >        4        3        3        3        4 </v>
   <v type="int" >        4        3        4        4        4 </v>
   <v type="int" >        6        4        4        4        4 </v>
   <v type="int" >        6        3        3        3        3 </v>
   <v type="int" >        4        1        1        2        2 </v>
   <v type="int" >        4        1        1        1        2 </v>
   <v type="int" >        4        1        2        2        2 </v>
   <v type="int" >        6        2        2        2        2 </v>
   <v type="int" >        6        1        1        1        1 </v>
  </varray>
  <i name="volumeweight">      0.00260417 </i>
 </kpoints>
 <parameters>
  <separator name="general" >
   <i type="string" name="SYSTEM">unknown system</i>
   <i type="logical" name="LCOMPAT"> F  </i>
  </separator>
  <separator name="electronic" >
   <i type="string" name="PREC">accura</i>
   <i name="ENMAX">    420.00000000</i>
   <i name="ENAUG">    628.94500000</i>
   <i name="EDIFF">      0.00002000</i>
   <i type="int" name="IALGO">    68</i>
   <i type="int" name="IWAVPR">    11</i>
   <i type="int" name="NBANDS">    48</i>
   <i name="NELECT">     76.00000000</i>
   <i type="int" name="TURBO">     0</i>
   <i type="int" name="IRESTART">     0</i>
   <i type="int" name="NREBOOT">     0</i>
   <i type="int" name="NMIN">     0</i>
   <i name="EREF">      0.00000000</i>
   <separator name="electronic smearing" >
    <i type="int" name="ISMEAR">    -5</i>
    <i name="SIGMA">      0.20000000</i>
    <i name="KSPACING">      0.50000000</i>
    <i type="logical" name="KGAMMA"> T  </i>
   </separator>
   <separator name="electronic projectors" >
    <i type="logical" name="LREAL"> T  </i>
    <v name="ROPT">     -0.00025000     -0.00025000     -0.00025000</v>
    <i type="int" name="LMAXPAW">  -100</i>
    <i type="int" name="LMAXMIX">     2</i>
    <i type="logical" name="NLSPLINE"> F  </i>
   </separator>
   <separator name="electronic startup" >
    <i type="int" name="ISTART">     0</i>
    <i type="int" name="ICHARG">     2</i>
    <i type="int" name="INIWAV">     1</i>
   </separator>
   <separator name="electronic spin" >
    <i type="int" name="ISPIN">     1</i>
    <i type="logical" name="LNONCOLLINEAR"> F  </i>
    <v name="MAGMOM">      1.00000000      1.00000000      1.00000000      1.00000000      1.00000000      1.00000000      1.00000000      1.00000000      1.00000000      1.00000000      1.00000000      1.00000000      1.00000000      1.00000000      1.00000000      1.00000000</v>
    <i name="NUPDOWN">     -1.00000000</i>
    <i type="logical" name="LSORBIT"> F  </i>
    <v name="SAXIS">      0.00000000      0.00000000      1.00000000</v>
    <i type="logical" name="LSPIRAL"> F  </i>
    <v name="QSPIRAL">      0.00000000      0.00000000      0.00000000</v>
    <i type="logical" name="LZEROZ"> F  </i>
   </separator>
   <separator name="electronic exchange-correlation" >
    <i type="logical" name="LASPH"> F  </i>
    <i type="logical" name="LMETAGGA"> F  </i>
   </separator>
   <separator name="electronic convergence" >
    <i type="int" name="NELM">   100</i>
    <i type="int" name="NELMDL">    -5</i>
    <i type="int" name="NELMIN">     2</i>
    <i name="ENINI">    420.00000000</i>
    <separator name="electronic convergence detail" >
     <i type="logical" name="LDIAG"> T  </i>
     <i type="logical" name="LSUBROT"> F  </i>
     <i name="WEIMIN">      0.00100000</i>
     <i name="EBREAK">      0.00000010</i>
     <i name="DEPER">      0.30000000</i>
     <i type="int" name="NRMM">     4</i>
     <i name="TIME">      0.40000000</i>
    </separator>
   </separator>
   <separator name="electronic mixer" >
    <i name="AMIX">      0.40000000</i>
    <i name="BMIX">      1.00000000</i>
    <i name="AMIN">      0.10000000</i>
    <i name="AMIX_MAG">      1.60000000</i>
    <i name="BMIX_MAG">      1.00000000</i>
    <separator name="electronic mixer details" >
     <i type="int" name="IMIX">     4</i>
     <i type="logical" name="MIXFIRST"> F  </i>
     <i type="int" name="MAXMIX">   -45</i>
     <i name="WC">    100.00000000</i>
     <i type="int" name="INIMIX">     1</i>
     <i type="int" name="MIXPRE">     1</i>
     <i type="int" name="MREMOVE">     5</i>
    </separator>
   </separator>
   <separator name="electronic dipolcorrection" >
    <i type="logical" name="LDIPOL"> F  </i>
    <i type="logical" name="LMONO"> F  </i>
    <i type="int" name="IDIPOL">     0</i>
    <i name="EPSILON">      1.00000000</i>
    <v name="DIPOL">   -100.00000000   -100.00000000   -100.00000000</v>
    <i name="EFIELD">      0.00000000</i>
   </separator>
  </separator>
  <separator name="grids" >
   <i type="int" name="NGX">    54</i>
   <i type="int" name="NGY">    42</i>
   <i type="int" name="NGZ">    40</i>
   <i type="int" name="NGXF">   108</i>
   <i type="int" name="NGYF">    84</i>
   <i type="int" name="NGZF">    80</i>
   <i type="logical" name="ADDGRID"> F  </i>
  </separator>
  <separator name="ionic" >
   <i type="int" name="NSW">   100</i>
   <i type="int" name="IBRION">     2</i>
   <i type="int" name="MDALGO">     0</i>
   <i type="int" name="ISIF">     3</i>
   <i name="PSTRESS">      0.00000000</i>
   <i name="EDIFFG">      0.00020000</i>
   <i type="int" name="NFREE">     1</i>
   <i name="POTIM">      0.50000000</i>
   <i name="SMASS">     -3.00000000</i>
   <i name="SCALEE">      1.00000000</i>
  </separator>
  <separator name="ionic md" >
   <i name="TEBEG">      0.00010000</i>
   <i name="TEEND">      0.00010000</i>
   <i type="int" name="NBLOCK">     1</i>
   <i type="int" name="KBLOCK">   100</i>
   <i type="int" name="NPACO">   256</i>
   <i name="APACO">     16.00000000</i>
  </separator>
  <separator name="symmetry" >
   <i type="int" name="ISYM">     2</i>
   <i name="SYMPREC">      0.00001000</i>
  </separator>
  <separator name="dos" >
   <i type="int" name="LORBIT">     0</i>
   <v name="RWIGS">     -1.00000000     -1.00000000     -1.00000000</v>
   <i type="int" name="NEDOS">   301</i>
   <i name="EMIN">     10.00000000</i>
   <i name="EMAX">    -10.00000000</i>
   <i name="EFERMI">      0.00000000</i>
  </separator>
  <separator name="writing" >
   <i type="int" name="NWRITE">     2</i>
   <i type="logical" name="LWAVE"> F  </i>
   <i type="logical" name="LDOWNSAMPLE"> F  </i>
   <i type="logical" name="LCHARG"> F  </i>
   <i type="logical" name="LPARD"> F  </i>
   <i type="logical" name="LVTOT"> F  </i>
   <i type="logical" name="LVHAR"> F  </i>
   <i type="logical" name="LELF"> F  </i>
   <i type="logical" name="LOPTICS"> F  </i>
   <v name="STM">      0.00000000      0.00000000      0.00000000      0.00000000      0.00000000      0.00000000      0.00000000</v>
  </separator>
  <separator name="performance" >
   <i type="int" name="NPAR">     4</i>
   <i type="int" name="NSIM">     4</i>
   <i type="int" name="NBLK">    -1</i>
   <i type="logical" name="LPLANE"> T  </i>
   <i type="logical" name="LSCALAPACK"> T  </i>
   <i type="logical" name="LSCAAWARE"> F  </i>
   <i type="logical" name="LSCALU"> F  </i>
   <i type="logical" name="LASYNC"> F  </i>
   <i type="logical" name="LORBITALREAL"> F  </i>
  </separator>
  <separator name="miscellaneous" >
   <i type="int" name="IDIOT">     3</i>
   <i type="int" name="ISPECIAL">     0</i>
   <i type="logical" name="LMUSIC"> F  </i>
   <v name="POMASS">     30.97400000     32.06600000      7.01000000</v>
   <v name="DARWINR">      0.00000000      0.00000000      0.00000000</v>
   <v name="DARWINV">      1.00000000      1.00000000      1.00000000</v>
   <i type="logical" name="LCORR"> T  </i>
  </separator>
  <i type="logical" name="GGA_COMPAT"> T  </i>
  <i type="logical" name="LBERRY"> F  </i>
  <i type="int" name="ICORELEVEL">     0</i>
  <i type="logical" name="LDAU"> F  </i>
  <i type="int" name="I_CONSTRAINED_M">     0</i>
  <separator name="electronic exchange-correlation" >
   <i type="string" name="GGA">--</i>
   <i type="int" name="VOSKOWN">     0</i>
   <i type="logical" name="LHFCALC"> F  </i>
   <i type="string" name="PRECFOCK"></i>
   <i type="logical" name="LSYMGRAD"> F  </i>
   <i type="logical" name="LHFONE"> F  </i>
   <i type="logical" name="LRHFCALC"> F  </i>
   <i type="logical" name="LTHOMAS"> F  </i>
   <i type="logical" name="LMODELHF"> F  </i>
   <i name="ENCUT4O">     -1.00000000</i>
   <i type="int" name="EXXOEP">     0</i>
   <i type="int" name="FOURORBIT">     0</i>
   <i name="AEXX">      0.00000000</i>
   <i name="HFALPHA">      0.00000000</i>
   <i name="MCALPHA">      0.00000000</i>
   <i name="ALDAX">      1.00000000</i>
   <i name="AGGAX">      1.00000000</i>
   <i name="ALDAC">      1.00000000</i>
   <i name="AGGAC">      1.00000000</i>
   <i type="int" name="NKREDX">     1</i>
   <i type="int" name="NKREDY">     1</i>
   <i type="int" name="NKREDZ">     1</i>
   <i type="logical" name="SHIFTRED"> F  </i>
   <i type="logical" name="ODDONLY"> F  </i>
   <i type="logical" name="EVENONLY"> F  </i>
   <i type="int" name="LMAXFOCK">     0</i>
   <i type="int" name="NMAXFOCKAE">     0</i>
   <i type="logical" name="LFOCKAEDFT"> F  </i>
   <i name="HFSCREEN">      0.00000000</i>
   <i name="HFSCREENC">      0.00000000</i>
   <i type="int" name="NBANDSGWLOW">     0</i>
  </separator>
  <separator name="vdW DFT" >
   <i type="logical" name="LUSE_VDW"> F  </i>
   <i name="Zab_VDW">     -0.84910000</i>
   <i name="PARAM1">      0.12340000</i>
   <i name="PARAM2">      1.00000000</i>
   <i name="PARAM3">      0.00000000</i>
  </separator>
  <separator name="model GW" >
   <i type="int" name="MODEL_GW">     0</i>
   <i name="MODEL_EPS0">     10.79138658</i>
   <i name="MODEL_ALPHA">      1.00000000</i>
  </separator>
  <separator name="linear response parameters" >
   <i type="logical" name="LEPSILON"> F  </i>
   <i type="logical" name="LRPA"> F  </i>
   <i type="logical" name="LNABLA"> F  </i>
   <i type="logical" name="LVEL"> F  </i>
   <i type="int" name="KINTER">     0</i>
   <i name="CSHIFT">      0.10000000</i>
   <i name="OMEGAMAX">     -1.00000000</i>
   <i name="DEG_THRESHOLD">      0.00200000</i>
   <i name="RTIME">     -0.10000000</i>
   <i name="WPLASMAI">      0.00000000</i>
   <v name="DFIELD">      0.00000000      0.00000000      0.00000000</v>
   <v name="WPLASMA">      0.00000000      0.00000000      0.00000000      0.00000000      0.00000000      0.00000000      0.00000000      0.00000000      0.00000000</v>
  </separator>
  <separator name="orbital magnetization" >
   <i type="logical" name="NUCIND"> F  </i>
   <v name="MAGPOS">      0.00000000      0.00000000      0.00000000</v>
   <i type="logical" name="LNICSALL"> T  </i>
   <i type="logical" name="ORBITALMAG"> F  </i>
   <i type="logical" name="LMAGBLOCH"> F  </i>
   <i type="logical" name="LCHIMAG"> F  </i>
   <i type="logical" name="LGAUGE"> T  </i>
   <i type="int" name="MAGATOM">     0</i>
   <v name="MAGDIPOL">      0.00000000      0.00000000      0.00000000</v>
   <v name="AVECCONST">      0.00000000      0.00000000      0.00000000</v>
  </separator>
  <separator name="response functions" >
   <i type="logical" name="LADDER"> F  </i>
   <i type="logical" name="LRPAFORCE"> F  </i>
   <i type="logical" name="LFXC"> F  </i>
   <i type="logical" name="LHARTREE"> T  </i>
   <i type="int" name="IBSE">     0</i>
   <v type="int" name="KPOINT">    -1     0     0     0</v>
   <i type="logical" name="LTCTE"> F  </i>
   <i type="logical" name="LTETE"> F  </i>
   <i type="logical" name="LTRIPLET"> F  </i>
   <i type="logical" name="LFXCEPS"> F  </i>
   <i type="logical" name="LFXHEG"> F  </i>
   <i type="int" name="NATURALO">     2</i>
   <i type="logical" name="L2ORDER"> F  </i>
   <i type="logical" name="LMP2LT"> F  </i>
   <i type="logical" name="LUSEW"> F  </i>
   <i name="ENCUTGW">     -2.00000000</i>
   <i name="ENCUTGWSOFT">     -2.00000000</i>
   <i name="ENCUTLF">     -1.00000000</i>
   <i type="int" name="LMAXMP2">    -1</i>
   <i name="SCISSOR">      0.00000000</i>
   <i type="int" name="NOMEGA">     0</i>
   <i type="int" name="NOMEGAR">     0</i>
   <i type="int" name="NBANDSGW">    -1</i>
   <i type="int" name="NBANDSO">    -1</i>
   <i type="int" name="NBANDSV">    -1</i>
   <i type="int" name="NELM">   100</i>
   <i type="int" name="NELMHF">     1</i>
   <i type="int" name="DIM">     3</i>
   <i type="int" name="ANTIRES">     0</i>
   <i name="OMEGAMAX">    -30.00000000</i>
   <i name="OMEGAMIN">    -30.00000000</i>
   <i name="OMEGATL">   -200.00000000</i>
   <i type="int" name="OMEGAGRID">   140</i>
   <i name="CSHIFT">     -0.10000000</i>
   <i type="logical" name="SELFENERGY"> F  </i>
   <i type="logical" name="LSPECTRAL"> F  </i>
   <i type="logical" name="LSPECTRALGW"> F  </i>
   <i type="logical" name="LSINGLES"> F  </i>
   <i type="logical" name="LFERMIGW"> F  </i>
   <i type="logical" name="ODDONLYGW"> F  </i>
   <i type="logical" name="EVENONLYGW"> F  </i>
   <i type="int" name="NKREDLFX">     1</i>
   <i type="int" name="NKREDLFY">     1</i>
   <i type="int" name="NKREDLFZ">     1</i>
   <i type="int" name="MAXMEM">  2800</i>
   <i type="int" name="TELESCOPE">     0</i>
   <i type="int" name="TAUPAR">     1</i>
   <i type="int" name="OMEGAPAR">    -1</i>
   <i name="LAMBDA">      1.00000000</i>
  </separator>
  <separator name="External order field" >
   <i name="OFIELD_KAPPA">      0.00000000</i>
   <v name="OFIELD_K">      0.00000000      0.00000000      0.00000000</v>
   <i name="OFIELD_Q6_NEAR">      0.00000000</i>
   <i name="OFIELD_Q6_FAR">      0.00000000</i>
   <i name="OFIELD_A">      0.00000000</i>
  </separator>
 </parameters>
 <atominfo>
  <atoms>      16 </atoms>
  <types>       3 </types>
  <array name="atoms" >
   <dimension dim="1">ion</dimension>
   <field type="string">element</field>
   <field type="int">atomtype</field>
   <set>
    <rc><c>P </c><c>   1</c></rc>
    <rc><c>P </c><c>   1</c></rc>
    <rc><c>S </c><c>   2</c></rc>
    <rc><c>S </c><c>   2</c></rc>
    <rc><c>S </c><c>   2</c></rc>
    <rc><c>S </c><c>   2</c></rc>
    <rc><c>S </c><c>   2</c></rc>
    <rc><c>S </c><c>   2</c></rc>
    <rc><c>S </c><c>   2</c></rc>
    <rc><c>S </c><c>   2</c></rc>
    <rc><c>Li</c><c>   3</c></rc>
    <rc><c>Li</c><c>   3</c></rc>
    <rc><c>Li</c><c>   3</c></rc>
    <rc><c>Li</c><c>   3</c></rc>
    <rc><c>Li</c><c>   3</c></rc>
    <rc><c>Li</c><c>   3</c></rc>
   </set>
  </array>
  <array name="atomtypes" >
   <dimension dim="1">type</dimension>
   <field type="int">atomspertype</field>
   <field type="string">element</field>
   <field>mass</field>
   <field>valence</field>
   <field type="string">pseudopotential</field>
   <set>
    <rc><c>   2</c><c>P </c><c>     30.97400000</c><c>      5.00000000</c><c>  PAW P 26Mar2009                       </c></rc>
    <rc><c>   8</c><c>S </c><c>     32.06600000</c><c>      6.00000000</c><c>  PAW S 27Mar2009                       </c></rc>
    <rc><c>   6</c><c>Li</c><c>      7.01000000</c><c>      3.00000000</c><c>  PAW Li_sv 10Sep2004                   </c></rc>
   </set>
  </array>
 </atominfo>
 <structure name="initialpos" >
  <crystal>
   <varray name="basis" >
    <v>       7.66716623       0.00000000       0.00000000 </v>
    <v>       0.00000000       6.22220380       0.00000000 </v>
    <v>       0.00000000       0.00000000       6.03207693 </v>
   </varray>
   <i name="volume">    287.77030882 </i>
   <varray name="rec_basis" >
    <v>       0.13042628       0.00000000       0.00000000 </v>
    <v>       0.00000000       0.16071476       0.00000000 </v>
    <v>       0.00000000       0.00000000       0.16578038 </v>
   </varray>
  </crystal>
  <varray name="positions" >
   <v>       0.00000000       0.33100749       0.29843656 </v>
   <v>       0.50000000       0.66899251       0.79843656 </v>
   <v>       0.21818844       0.16949605       0.20260341 </v>
   <v>       0.28181156       0.83050395       0.70260341 </v>
   <v>       0.71818844       0.83050395       0.70260341 </v>
   <v>       0.78181156       0.16949605       0.20260341 </v>
   <v>       0.00000000       0.63135388       0.17483226 </v>
   <v>       0.50000000       0.36864612       0.67483226 </v>
   <v>       0.00000000       0.32347468       0.63779371 </v>
   <v>       0.50000000       0.67652532       0.13779371 </v>
   <v>       0.00000000       0.65853707       0.77238260 </v>
   <v>       0.50000000       0.34146293       0.27238260 </v>
   <v>       0.25235779       0.17972799       0.80227929 </v>
   <v>       0.24764221       0.82027201       0.30227929 </v>
   <v>       0.75235779       0.82027201       0.30227929 </v>
   <v>       0.74764221       0.17972799       0.80227929 </v>
  </varray>
 </structure>
 <calculation>
  <scstep>
   <time name="dav">    0.20    0.20</time>
   <time name="total">    0.21    0.22</time>
   <energy>
    <i name="alphaZ">     68.57190477 </i>
    <i name="ewald">  -2732.75012391 </i>
    <i name="hartreedc">   -617.25936590 </i>
    <i name="XCdc">    181.86945651 </i>
    <i name="pawpsdc">   2494.22442938 </i>
    <i name="pawaedc">  -2541.12215007 </i>
    <i name="eentropy">      0.00000000 </i>
    <i name="bandstr">   -117.46177451 </i>
    <i name="atom">   3769.08782378 </i>
    <i name="e_fr_energy">    505.16020005 </i>
    <i name="e_wo_entrp">    505.16020005 </i>
    <i name="e_0_energy">    505.16020005 </i>
   </energy>
  </scstep>
  <scstep>
   <time name="dav">    0.19    0.19</time>
   <time name="total">    0.19    0.19</time>
   <energy>
    <i name="e_fr_energy">     -8.70929906 </i>
    <i name="e_wo_entrp">     -8.70929906 </i>
    <i name="e_0_energy">     -8.70929906 </i>
   </energy>
  </scstep>
  <scstep>
   <time name="dav">    0.22    0.22</time>
   <time name="total">    0.22    0.22</time>
   <energy>
    <i name="e_fr_energy">    -72.07776921 </i>
    <i name="e_wo_entrp">    -72.07776921 </i>
    <i name="e_0_energy">    -72.07776921 </i>
   </energy>
  </scstep>
  <scstep>
   <time name="dav">    0.28    0.28</time>
   <time name="total">    0.28    0.28</time>
   <energy>
    <i name="e_fr_energy">    -79.15829782 </i>
    <i name="e_wo_entrp">    -79.15829782 </i>
    <i name="e_0_energy">    -79.15829782 </i>
   </energy>
  </scstep>
  <scstep>
   <time name="dav">    0.23    0.23</time>
   <time name="total">    0.24    0.24</time>
   <energy>
    <i name="e_fr_energy">    -80.01541721 </i>
    <i name="e_wo_entrp">    -80.01541721 </i>
    <i name="e_0_energy">    -80.01541721 </i>
   </energy>
  </scstep>
  <scstep>
   <time name="diag">    0.05    0.05</time>
   <time name="diis">    0.07    0.07</time>
   <time name="orth">    0.01    0.01</time>
   <time name="total">    0.15    0.15</time>
   <energy>
    <i name="e_fr_energy">    -77.67122690 </i>
    <i name="e_wo_entrp">    -77.67122690 </i>
    <i name="e_0_energy">    -77.67122690 </i>
   </energy>
  </scstep>
  <scstep>
   <time name="diag">    0.05    0.05</time>
   <time name="diis">    0.08    0.08</time>
   <time name="orth">    0.01    0.01</time>
   <time name="total">    0.15    0.15</time>
   <energy>
    <i name="e_fr_energy">    -77.24847651 </i>
    <i name="e_wo_entrp">    -77.24847651 </i>
    <i name="e_0_energy">    -77.24847651 </i>
   </energy>
  </scstep>
  <scstep>
   <time name="diag">    0.05    0.05</time>
   <time name="diis">    0.08    0.08</time>
   <time name="orth">    0.01    0.01</time>
   <time name="total">    0.16    0.16</time>
   <energy>
    <i name="e_fr_energy">    -77.18274304 </i>
    <i name="e_wo_entrp">    -77.18274304 </i>
    <i name="e_0_energy">    -77.18274304 </i>
   </energy>
  </scstep>
  <scstep>
   <time name="diag">    0.05    0.05</time>
   <time name="diis">    0.09    0.09</time>
   <time name="orth">    0.01    0.01</time>
   <time name="total">    0.17    0.17</time>
   <energy>
    <i name="e_fr_energy">    -77.17781689 </i>
    <i name="e_wo_entrp">    -77.17781689 </i>
    <i name="e_0_energy">    -77.17781689 </i>
   </energy>
  </scstep>
  <scstep>
   <time name="diag">    0.05    0.05</time>
   <time name="diis">    0.10    0.10</time>
   <time name="orth">    0.01    0.01</time>
   <time name="total">    0.18    0.18</time>
   <energy>
    <i name="e_fr_energy">    -77.17846045 </i>
    <i name="e_wo_entrp">    -77.17846045 </i>
    <i name="e_0_energy">    -77.17846045 </i>
   </energy>
  </scstep>
  <scstep>
   <time name="diag">    0.05    0.05</time>
   <time name="diis">    0.10    0.10</time>
   <time name="orth">    0.01    0.01</time>
   <time name="total">    0.18    0.18</time>
   <energy>
    <i name="e_fr_energy">    -77.17867196 </i>
    <i name="e_wo_entrp">    -77.17867196 </i>
    <i name="e_0_energy">    -77.17867196 </i>
   </energy>
  </scstep>
  <scstep>
   <time name="diag">    0.05    0.05</time>
   <time name="diis">    0.09    0.09</time>
   <time name="orth">    0.01    0.01</time>
   <time name="total">    0.17    0.17</time>
   <energy>
    <i name="e_fr_energy">    -77.17874354 </i>
    <i name="e_wo_entrp">    -77.17874354 </i>
    <i name="e_0_energy">    -77.17874354 </i>
   </energy>
  </scstep>
  <scstep>
   <time name="diag">    0.05    0.05</time>
   <time name="diis">    0.06    0.06</time>
   <time name="orth">    0.01    0.01</time>
   <time name="total">    0.14    0.14</time>
   <energy>
    <i name="e_fr_energy">    -77.17876421 </i>
    <i name="e_wo_entrp">    -77.17876421 </i>
    <i name="e_0_energy">    -77.17876421 </i>
   </energy>
  </scstep>
  <scstep>
   <time name="diag">    0.05    0.05</time>
   <time name="diis">    0.06    0.06</time>
   <time name="orth">    0.01    0.01</time>
   <time name="total">    0.12    0.12</time>
   <energy>
    <i name="alphaZ">     68.57190477 </i>
    <i name="ewald">  -2732.75012391 </i>
    <i name="hartreedc">   -649.03764057 </i>
    <i name="XCdc">    185.63153671 </i>
    <i name="pawpsdc">   7390.51948729 </i>
    <i name="pawaedc">  -7440.50074103 </i>
    <i name="eentropy">      0.00000000 </i>
    <i name="bandstr">   -668.70101363 </i>
    <i name="atom">   3769.08782378 </i>
    <i name="e_fr_energy">    -77.17876659 </i>
    <i name="e_wo_entrp">    -77.17876659 </i>
    <i name="e_0_energy">    -77.17876659 </i>
   </energy>
  </scstep>
  <structure>
   <crystal>
    <varray name="basis" >
     <v>       7.66716623       0.00000000       0.00000000 </v>
     <v>       0.00000000       6.22220380       0.00000000 </v>
     <v>       0.00000000       0.00000000       6.03207693 </v>
    </varray>
    <i name="volume">    287.77030882 </i>
    <varray name="rec_basis" >
     <v>       0.13042628       0.00000000       0.00000000 </v>
     <v>       0.00000000       0.16071476       0.00000000 </v>
     <v>       0.00000000       0.00000000       0.16578038 </v>
    </varray>
   </crystal>
   <varray name="positions" >
    <v>       0.00000000       0.33100749       0.29843656 </v>
    <v>       0.50000000       0.66899251       0.79843656 </v>
    <v>       0.21818844       0.16949605       0.20260341 </v>
    <v>       0.28181156       0.83050395       0.70260341 </v>
    <v>       0.71818844       0.83050395       0.70260341 </v>
    <v>       0.78181156       0.16949605       0.20260341 </v>
    <v>       0.00000000       0.63135388       0.17483226 </v>
    <v>       0.50000000       0.36864612       0.67483226 </v>
    <v>       0.00000000       0.32347468       0.63779371 </v>
    <v>       0.50000000       0.67652532       0.13779371 </v>
    <v>       0.00000000       0.65853707       0.77238260 </v>
    <v>       0.50000000       0.34146293       0.27238260 </v>
    <v>       0.25235779       0.17972799       0.80227929 </v>
    <v>       0.24764221       0.82027201       0.30227929 </v>
    <v>       0.75235779       0.82027201       0.30227929 </v>
    <v>       0.74764221       0.17972799       0.80227929 </v>
   </varray>
  </structure>
  <varray name="forces" >
   <v>       0.00000000      -0.43676822       0.34387867 </v>
   <v>       0.00000000       0.43676822       0.34387867 </v>
   <v>       0.02671767       0.27152824      -0.48988769 </v>
   <v>      -0.02671767      -0.27152824      -0.48988769 </v>
   <v>       0.02671767      -0.27152824      -0.48988769 </v>
   <v>      -0.02671767       0.27152824      -0.48988769 </v>
   <v>       0.00000000       0.13272979       0.09591697 </v>
   <v>       0.00000000      -0.13272979       0.09591697 </v>
   <v>       0.00000000      -0.30142987       0.01160130 </v>
   <v>       0.00000000       0.30142987       0.01160130 </v>
   <v>       0.00000000       0.26057387       0.20807656 </v>
   <v>       0.00000000      -0.26057387       0.20807656 </v>
   <v>       0.00056860       0.32374762       0.16015095 </v>
   <v>      -0.00056860      -0.32374762       0.16015095 </v>
   <v>       0.00056860      -0.32374762       0.16015095 </v>
   <v>      -0.00056860       0.32374762       0.16015095 </v>
  </varray>
  <varray name="stress" >
   <v>      -7.78474636       0.00000000       0.00000000 </v>
   <v>       0.00000000      24.24616393       0.00000000 </v>
   <v>       0.00000000       0.00000000      -6.32871218 </v>
  </varray>
  <energy>
   <i name="e_fr_energy">    -77.17876659 </i>
   <i name="e_wo_entrp">    -77.17876659 </i>
   <i name="e_0_energy">      0.00000000 </i>
  </energy>
  <time name="totalsc">    2.75    2.77</time>
 </calculation>
 <calculation>
  <scstep>
   <time name="dav">    0.18    0.18</time>
   <time name="total">    0.20    0.20</time>
   <energy>
    <i name="alphaZ">     68.20348689 </i>
    <i name="ewald">  -2729.62221755 </i>
    <i name="hartreedc">   -646.53842187 </i>
    <i name="XCdc">    185.23552502 </i>
    <i name="pawpsdc">   7391.06688662 </i>
    <i name="pawaedc">  -7441.04806915 </i>
    <i name="eentropy">      0.00000000 </i>
    <i name="bandstr">   -673.66476697 </i>
    <i name="atom">   3769.08782378 </i>
    <i name="e_fr_energy">    -77.27975323 </i>
    <i name="e_wo_entrp">    -77.27975323 </i>
    <i name="e_0_energy">    -77.27975323 </i>
   </energy>
  </scstep>
  <scstep>
   <time name="diag">    0.05    0.05</time>
   <time name="diis">    0.09    0.09</time>
   <time name="orth">    0.01    0.01</time>
   <time name="total">    0.16    0.16</time>
   <energy>
    <i name="e_fr_energy">    -77.32124161 </i>
    <i name="e_wo_entrp">    -77.32124161 </i>
    <i name="e_0_energy">    -77.32124161 </i>
   </energy>
  </scstep>
  <scstep>
   <time name="diag">    0.05    0.05</time>
   <time name="diis">    0.10    0.10</time>
   <time name="orth">    0.01    0.01</time>
   <time name="total">    0.18    0.18</time>
   <energy>
    <i name="e_fr_energy">    -77.29533584 </i>
    <i name="e_wo_entrp">    -77.29533584 </i>
    <i name="e_0_energy">    -77.29533584 </i>
   </energy>
  </scstep>
  <scstep>
   <time name="diag">    0.05    0.05</time>
   <time name="diis">    0.09    0.09</time>
   <time name="orth">    0.01    0.01</time>
   <time name="total">    0.17    0.17</time>
   <energy>
    <i name="e_fr_energy">    -77.28801645 </i>
    <i name="e_wo_entrp">    -77.28801645 </i>
    <i name="e_0_energy">    -77.28801645 </i>
   </energy>
  </scstep>
  <scstep>
   <time name="diag">    0.05    0.05</time>
   <time name="diis">    0.12    0.12</time>
   <time name="orth">    0.01    0.01</time>
   <time name="total">    0.19    0.19</time>
   <energy>
    <i name="e_fr_energy">    -77.28869356 </i>
    <i name="e_wo_entrp">    -77.28869356 </i>
    <i name="e_0_energy">    -77.28869356 </i>
   </energy>
  </scstep>
  <scstep>
   <time name="diag">    0.05    0.05</time>
   <time name="diis">    0.10    0.10</time>
   <time name="orth">    0.01    0.01</time>
   <time name="total">    0.18    0.18</time>
   <energy>
    <i name="e_fr_energy">    -77.28888134 </i>
    <i name="e_wo_entrp">    -77.28888134 </i>
    <i name="e_0_energy">    -77.28888134 </i>
   </energy>
  </scstep>
  <scstep>
   <time name="diag">    0.05    0.05</time>
   <time name="diis">    0.10    0.10</time>
   <time name="orth">    0.01    0.01</time>
   <time name="total">    0.18    0.18</time>
   <energy>
    <i name="e_fr_energy">    -77.28892926 </i>
    <i name="e_wo_entrp">    -77.28892926 </i>
    <i name="e_0_energy">    -77.28892926 </i>
   </energy>
  </scstep>
  <scstep>
   <time name="diag">    0.05    0.05</time>
   <time name="diis">    0.10    0.10</time>
   <time name="orth">    0.01    0.01</time>
   <time name="total">    0.18    0.18</time>
   <energy>
    <i name="e_fr_energy">    -77.28898165 </i>
    <i name="e_wo_entrp">    -77.28898165 </i>
    <i name="e_0_energy">    -77.28898165 </i>
   </energy>
  </scstep>
  <scstep>
   <time name="diag">    0.05    0.05</time>
   <time name="diis">    0.06    0.06</time>
   <time name="orth">    0.01    0.01</time>
   <time name="total">    0.12    0.12</time>
   <energy>
    <i name="alphaZ">     68.20348689 </i>
    <i name="ewald">  -2729.62221755 </i>
    <i name="hartreedc">   -649.16175223 </i>
    <i name="XCdc">    185.42478752 </i>
    <i name="pawpsdc">   7306.68368454 </i>
    <i name="pawaedc">  -7356.68653208 </i>
    <i name="eentropy">      0.00000000 </i>
    <i name="bandstr">   -671.21826651 </i>
    <i name="atom">   3769.08782378 </i>
    <i name="e_fr_energy">    -77.28898564 </i>
    <i name="e_wo_entrp">    -77.28898564 </i>
    <i name="e_0_energy">    -77.28898564 </i>
   </energy>
  </scstep>
  <structure>
   <crystal>
    <varray name="basis" >
     <v>       7.63484216       0.00000000       0.00000000 </v>
     <v>       0.00000000       6.30390603       0.00000000 </v>
     <v>       0.00000000       0.00000000       6.01140273 </v>
    </varray>
    <i name="volume">    289.32477079 </i>
    <varray name="rec_basis" >
     <v>       0.13097848       0.00000000       0.00000000 </v>
     <v>       0.00000000       0.15863181       0.00000000 </v>
     <v>       0.00000000       0.00000000       0.16635053 </v>
    </varray>
   </crystal>
   <varray name="positions" >
    <v>       0.00000000       0.32762109       0.30118679 </v>
    <v>       0.50000000       0.67237891       0.80118679 </v>
    <v>       0.21835655       0.17160129       0.19868544 </v>
    <v>       0.28164345       0.82839871       0.69868544 </v>
    <v>       0.71835655       0.82839871       0.69868544 </v>
    <v>       0.78164345       0.17160129       0.19868544 </v>
    <v>       0.00000000       0.63238297       0.17559937 </v>
    <v>       0.50000000       0.36761703       0.67559937 </v>
    <v>       0.00000000       0.32113761       0.63788649 </v>
    <v>       0.50000000       0.67886239       0.13788649 </v>
    <v>       0.00000000       0.66055738       0.77404673 </v>
    <v>       0.50000000       0.33944262       0.27404673 </v>
    <v>       0.25236136       0.18223810       0.80356012 </v>
    <v>       0.24763864       0.81776190       0.30356012 </v>
    <v>       0.75236136       0.81776190       0.30356012 </v>
    <v>       0.74763864       0.18223810       0.80356012 </v>
   </varray>
  </structure>
  <varray name="forces" >
   <v>       0.00000000       0.30142642      -0.23370867 </v>
   <v>       0.00000000      -0.30142642      -0.23370867 </v>
   <v>       0.06532455       0.05506772      -0.32448847 </v>
   <v>      -0.06532455      -0.05506772      -0.32448847 </v>
   <v>       0.06532455      -0.05506772      -0.32448847 </v>
   <v>      -0.06532455       0.05506772      -0.32448847 </v>
   <v>       0.00000000      -0.51597006       0.34999232 </v>
   <v>       0.00000000       0.51597006       0.34999232 </v>
   <v>       0.00000000      -0.12169882       0.27914244 </v>
   <v>       0.00000000       0.12169882       0.27914244 </v>
   <v>       0.00000000       0.07485016       0.15226450 </v>
   <v>       0.00000000      -0.07485016       0.15226450 </v>
   <v>       0.04703449       0.13521602       0.05064317 </v>
   <v>      -0.04703449      -0.13521602       0.05064317 </v>
   <v>       0.04703449      -0.13521602       0.05064317 </v>
   <v>      -0.04703449       0.13521602       0.05064317 </v>
  </varray>
  <varray name="stress" >
   <v>      -3.15309823       0.00000000       0.00000000 </v>
   <v>       0.00000000      -4.06042772       0.00000000 </v>
   <v>       0.00000000       0.00000000       0.20937758 </v>
  </varray>
  <energy>
   <i name="e_fr_energy">    -77.28898564 </i>
   <i name="e_wo_entrp">    -77.28898564 </i>
   <i name="e_0_energy">      0.00000000 </i>
  </energy>
  <time name="totalsc">    1.75    1.76</time>
 </calculation>
 <calculation>
  <scstep>
   <time name="dav">    0.20    0.20</time>
   <time name="total">    0.23    0.23</time>
   <energy>
    <i name="alphaZ">     68.15613157 </i>
    <i name="ewald">  -2729.10767032 </i>
    <i name="hartreedc">   -648.90841237 </i>
    <i name="XCdc">    185.37500444 </i>
    <i name="pawpsdc">   7306.93626903 </i>
    <i name="pawaedc">  -7356.93847817 </i>
    <i name="eentropy">      0.00000000 </i>
    <i name="bandstr">   -671.89081490 </i>
    <i name="atom">   3769.08782378 </i>
    <i name="e_fr_energy">    -77.29014693 </i>
    <i name="e_wo_entrp">    -77.29014693 </i>
    <i name="e_0_energy">    -77.29014693 </i>
   </energy>
  </scstep>
  <scstep>
   <time name="diag">    0.05    0.05</time>
   <time name="diis">    0.09    0.09</time>
   <time name="orth">    0.01    0.01</time>
   <time name="total">    0.16    0.17</time>
   <energy>
    <i name="e_fr_energy">    -77.29069305 </i>
    <i name="e_wo_entrp">    -77.29069305 </i>
    <i name="e_0_energy">    -77.29069305 </i>
   </energy>
  </scstep>
  <scstep>
   <time name="diag">    0.05    0.05</time>
   <time name="diis">    0.10    0.10</time>
   <time name="orth">    0.01    0.01</time>
   <time name="total">    0.18    0.18</time>
   <energy>
    <i name="e_fr_energy">    -77.29038712 </i>
    <i name="e_wo_entrp">    -77.29038712 </i>
    <i name="e_0_energy">    -77.29038712 </i>
   </energy>
  </scstep>
  <scstep>
   <time name="diag">    0.05    0.05</time>
   <time name="diis">    0.09    0.09</time>
   <time name="orth">    0.01    0.01</time>
   <time name="total">    0.17    0.17</time>
   <energy>
    <i name="e_fr_energy">    -77.29028078 </i>
    <i name="e_wo_entrp">    -77.29028078 </i>
    <i name="e_0_energy">    -77.29028078 </i>
   </energy>
  </scstep>
  <scstep>
   <time name="diag">    0.05    0.05</time>
   <time name="diis">    0.07    0.07</time>
   <time name="orth">    0.01    0.01</time>
   <time name="total">    0.13    0.13</time>
   <energy>
    <i name="alphaZ">     68.15613157 </i>
    <i name="ewald">  -2729.10767032 </i>
    <i name="hartreedc">   -649.26716116 </i>
    <i name="XCdc">    185.40113685 </i>
    <i name="pawpsdc">   7297.14961471 </i>
    <i name="pawaedc">  -7347.15405968 </i>
    <i name="eentropy">      0.00000000 </i>
    <i name="bandstr">   -671.55609780 </i>
    <i name="atom">   3769.08782378 </i>
    <i name="e_fr_energy">    -77.29028206 </i>
    <i name="e_wo_entrp">    -77.29028206 </i>
    <i name="e_0_energy">    -77.29028206 </i>
   </energy>
  </scstep>
  <structure>
   <crystal>
    <varray name="basis" >
     <v>       7.63058573       0.00000000       0.00000000 </v>
     <v>       0.00000000       6.31466458       0.00000000 </v>
     <v>       0.00000000       0.00000000       6.00868035 </v>
    </varray>
    <i name="volume">    289.52579551 </i>
    <varray name="rec_basis" >
     <v>       0.13105154       0.00000000       0.00000000 </v>
     <v>       0.00000000       0.15836154       0.00000000 </v>
     <v>       0.00000000       0.00000000       0.16642589 </v>
    </varray>
   </crystal>
   <varray name="positions" >
    <v>       0.00000000       0.32718095       0.30155019 </v>
    <v>       0.50000000       0.67281905       0.80155019 </v>
    <v>       0.21837878       0.17187492       0.19816775 </v>
    <v>       0.28162122       0.82812508       0.69816775 </v>
    <v>       0.71837878       0.82812508       0.69816775 </v>
    <v>       0.78162122       0.17187492       0.19816775 </v>
    <v>       0.00000000       0.63251673       0.17570073 </v>
    <v>       0.50000000       0.36748327       0.67570073 </v>
    <v>       0.00000000       0.32083385       0.63789875 </v>
    <v>       0.50000000       0.67916615       0.13789875 </v>
    <v>       0.00000000       0.66081996       0.77426661 </v>
    <v>       0.50000000       0.33918004       0.27426661 </v>
    <v>       0.25236184       0.18256435       0.80372936 </v>
    <v>       0.24763816       0.81743565       0.30372936 </v>
    <v>       0.75236184       0.81743565       0.30372936 </v>
    <v>       0.74763816       0.18256435       0.80372936 </v>
   </varray>
  </structure>
  <varray name="forces" >
   <v>       0.00000000       0.38445072      -0.30782050 </v>
   <v>       0.00000000      -0.38445072      -0.30782050 </v>
   <v>       0.07018549       0.03176584      -0.30227160 </v>
   <v>      -0.07018549      -0.03176584      -0.30227160 </v>
   <v>       0.07018549      -0.03176584      -0.30227160 </v>
   <v>      -0.07018549       0.03176584      -0.30227160 </v>
   <v>       0.00000000      -0.58978512       0.37746391 </v>
   <v>       0.00000000       0.58978512       0.37746391 </v>
   <v>       0.00000000      -0.09932698       0.31564693 </v>
   <v>       0.00000000       0.09932698       0.31564693 </v>
   <v>       0.00000000       0.05527955       0.14671554 </v>
   <v>       0.00000000      -0.05527955       0.14671554 </v>
   <v>       0.05228224       0.11547859       0.03626866 </v>
   <v>      -0.05228224      -0.11547859       0.03626866 </v>
   <v>       0.05228224      -0.11547859       0.03626866 </v>
   <v>      -0.05228224       0.11547859       0.03626866 </v>
  </varray>
  <varray name="stress" >
   <v>      -2.62961042       0.00000000       0.00000000 </v>
   <v>       0.00000000      -7.20891345       0.00000000 </v>
   <v>       0.00000000       0.00000000       1.11536614 </v>
  </varray>
  <energy>
   <i name="e_fr_energy">    -77.29028206 </i>
   <i name="e_wo_entrp">    -77.29028206 </i>
   <i name="e_0_energy">      0.00000000 </i>
  </energy>
  <time name="totalsc">    1.05    1.06</time>
 </calculation>
 <calculation>
  <scstep>
   <time name="dav">    0.17    0.17</time>
   <time name="total">    0.19    0.19</time>
   <energy>
    <i name="alphaZ">     68.28069533 </i>
    <i name="ewald">  -2730.35853654 </i>
    <i name="hartreedc">   -650.06230727 </i>
    <i name="XCdc">    185.52346473 </i>
    <i name="pawpsdc">   7298.24675930 </i>
    <i name="pawaedc">  -7348.25071525 </i>
    <i name="eentropy">      0.00000000 </i>
    <i name="bandstr">   -669.76783172 </i>
    <i name="atom">   3769.08782378 </i>
    <i name="e_fr_energy">    -77.30064765 </i>
    <i name="e_wo_entrp">    -77.30064765 </i>
    <i name="e_0_energy">    -77.30064765 </i>
   </energy>
  </scstep>
  <scstep>
   <time name="diag">    0.05    0.05</time>
   <time name="diis">    0.08    0.09</time>
   <time name="orth">    0.01    0.01</time>
   <time name="total">    0.16    0.16</time>
   <energy>
    <i name="e_fr_energy">    -77.36157058 </i>
    <i name="e_wo_entrp">    -77.36157058 </i>
    <i name="e_0_energy">    -77.36157058 </i>
   </energy>
  </scstep>
  <scstep>
   <time name="diag">    0.05    0.05</time>
   <time name="diis">    0.11    0.11</time>
   <time name="orth">    0.01    0.01</time>
   <time name="total">    0.19    0.19</time>
   <energy>
    <i name="e_fr_energy">    -77.35756267 </i>
    <i name="e_wo_entrp">    -77.35756267 </i>
    <i name="e_0_energy">    -77.35756267 </i>
   </energy>
  </scstep>
  <scstep>
   <time name="diag">    0.05    0.05</time>
   <time name="diis">    0.11    0.11</time>
   <time name="orth">    0.01    0.01</time>
   <time name="total">    0.18    0.18</time>
   <energy>
    <i name="e_fr_energy">    -77.35611697 </i>
    <i name="e_wo_entrp">    -77.35611697 </i>
    <i name="e_0_energy">    -77.35611697 </i>
   </energy>
  </scstep>
  <scstep>
   <time name="diag">    0.05    0.05</time>
   <time name="diis">    0.11    0.11</time>
   <time name="orth">    0.01    0.01</time>
   <time name="total">    0.19    0.19</time>
   <energy>
    <i name="e_fr_energy">    -77.35669321 </i>
    <i name="e_wo_entrp">    -77.35669321 </i>
    <i name="e_0_energy">    -77.35669321 </i>
   </energy>
  </scstep>
  <scstep>
   <time name="diag">    0.05    0.05</time>
   <time name="diis">    0.10    0.10</time>
   <time name="orth">    0.01    0.01</time>
   <time name="total">    0.18    0.18</time>
   <energy>
    <i name="e_fr_energy">    -77.35696858 </i>
    <i name="e_wo_entrp">    -77.35696858 </i>
    <i name="e_0_energy">    -77.35696858 </i>
   </energy>
  </scstep>
  <scstep>
   <time name="diag">    0.05    0.05</time>
   <time name="diis">    0.10    0.10</time>
   <time name="orth">    0.01    0.01</time>
   <time name="total">    0.18    0.18</time>
   <energy>
    <i name="e_fr_energy">    -77.35707286 </i>
    <i name="e_wo_entrp">    -77.35707286 </i>
    <i name="e_0_energy">    -77.35707286 </i>
   </energy>
  </scstep>
  <scstep>
   <time name="diag">    0.05    0.05</time>
   <time name="diis">    0.09    0.09</time>
   <time name="orth">    0.01    0.01</time>
   <time name="total">    0.17    0.17</time>
   <energy>
    <i name="e_fr_energy">    -77.35712437 </i>
    <i name="e_wo_entrp">    -77.35712437 </i>
    <i name="e_0_energy">    -77.35712437 </i>
   </energy>
  </scstep>
  <scstep>
   <time name="diag">    0.05    0.05</time>
   <time name="diis">    0.06    0.06</time>
   <time name="orth">    0.01    0.01</time>
   <time name="total">    0.12    0.12</time>
   <energy>
    <i name="alphaZ">     68.28069533 </i>
    <i name="ewald">  -2730.35853654 </i>
    <i name="hartreedc">   -649.05674622 </i>
    <i name="XCdc">    185.44525983 </i>
    <i name="pawpsdc">   7307.74564424 </i>
    <i name="pawaedc">  -7357.72953830 </i>
    <i name="eentropy">      0.00000000 </i>
    <i name="bandstr">   -670.77172773 </i>
    <i name="atom">   3769.08782378 </i>
    <i name="e_fr_energy">    -77.35712561 </i>
    <i name="e_wo_entrp">    -77.35712561 </i>
    <i name="e_0_energy">    -77.35712561 </i>
   </energy>
  </scstep>
  <structure>
   <crystal>
    <varray name="basis" >
     <v>       7.60139202       0.00000000       0.00000000 </v>
     <v>       0.00000000       6.33553229       0.00000000 </v>
     <v>       0.00000000       0.00000000       6.00092255 </v>
    </varray>
    <i name="volume">    288.99761664 </i>
    <varray name="rec_basis" >
     <v>       0.13155485       0.00000000       0.00000000 </v>
     <v>       0.00000000       0.15783993       0.00000000 </v>
     <v>       0.00000000       0.00000000       0.16664104 </v>
    </varray>
   </crystal>
   <varray name="positions" >
    <v>       0.00000000       0.32833119       0.30055616 </v>
    <v>       0.50000000       0.67166881       0.80055616 </v>
    <v>       0.21892857       0.17328294       0.19347952 </v>
    <v>       0.28107143       0.82671706       0.69347952 </v>
    <v>       0.71892857       0.82671706       0.69347952 </v>
    <v>       0.78107143       0.17328294       0.19347952 </v>
    <v>       0.00000000       0.62845875       0.17924138 </v>
    <v>       0.50000000       0.37154125       0.67924138 </v>
    <v>       0.00000000       0.31876845       0.64055181 </v>
    <v>       0.50000000       0.68123155       0.14055181 </v>
    <v>       0.00000000       0.66236560       0.77640894 </v>
    <v>       0.50000000       0.33763440       0.27640894 </v>
    <v>       0.25270309       0.18485165       0.80474660 </v>
    <v>       0.24729691       0.81514835       0.30474660 </v>
    <v>       0.75270309       0.81514835       0.30474660 </v>
    <v>       0.74729691       0.18485165       0.80474660 </v>
   </varray>
  </structure>
  <varray name="forces" >
   <v>       0.00000000      -0.07228580       0.03241063 </v>
   <v>       0.00000000       0.07228580       0.03241063 </v>
   <v>       0.00803937      -0.06389240      -0.09080039 </v>
   <v>      -0.00803937       0.06389240      -0.09080039 </v>
   <v>       0.00803937       0.06389240      -0.09080039 </v>
   <v>      -0.00803937      -0.06389240      -0.09080039 </v>
   <v>       0.00000000      -0.13375214       0.17172003 </v>
   <v>       0.00000000       0.13375214       0.17172003 </v>
   <v>       0.00000000      -0.02048750      -0.04005963 </v>
   <v>       0.00000000       0.02048750      -0.04005963 </v>
   <v>       0.00000000      -0.03201935       0.11705252 </v>
   <v>       0.00000000       0.03201935       0.11705252 </v>
   <v>       0.06217788      -0.00218188      -0.04976139 </v>
   <v>      -0.06217788       0.00218188      -0.04976139 </v>
   <v>       0.06217788       0.00218188      -0.04976139 </v>
   <v>      -0.06217788      -0.00218188      -0.04976139 </v>
  </varray>
  <varray name="stress" >
   <v>      -0.91248297       0.00000000       0.00000000 </v>
   <v>       0.00000000      -4.47532606       0.00000000 </v>
   <v>       0.00000000       0.00000000      -1.64380999 </v>
  </varray>
  <energy>
   <i name="e_fr_energy">    -77.35712561 </i>
   <i name="e_wo_entrp">    -77.35712561 </i>
   <i name="e_0_energy">      0.00000000 </i>
  </energy>
  <time name="totalsc">    1.75    1.76</time>
 </calculation>
 <calculation>
  <scstep>
   <time name="dav">    0.19    0.19</time>
   <time name="total">    0.21    0.21</time>
   <energy>
    <i name="alphaZ">     68.30874667 </i>
    <i name="ewald">  -2730.49111673 </i>
    <i name="hartreedc">   -649.35432394 </i>
    <i name="XCdc">    185.47502438 </i>
    <i name="pawpsdc">   7307.71604144 </i>
    <i name="pawaedc">  -7357.70021909 </i>
    <i name="eentropy">      0.00000000 </i>
    <i name="bandstr">   -670.39804771 </i>
    <i name="atom">   3769.08782378 </i>
    <i name="e_fr_energy">    -77.35607120 </i>
    <i name="e_wo_entrp">    -77.35607120 </i>
    <i name="e_0_energy">    -77.35607120 </i>
   </energy>
  </scstep>
  <scstep>
   <time name="diag">    0.05    0.05</time>
   <time name="diis">    0.09    0.09</time>
   <time name="orth">    0.01    0.01</time>
   <time name="total">    0.16    0.16</time>
   <energy>
    <i name="e_fr_energy">    -77.35901977 </i>
    <i name="e_wo_entrp">    -77.35901977 </i>
    <i name="e_0_energy">    -77.35901977 </i>
   </energy>
  </scstep>
  <scstep>
   <time name="diag">    0.05    0.05</time>
   <time name="diis">    0.11    0.11</time>
   <time name="orth">    0.01    0.01</time>
   <time name="total">    0.18    0.18</time>
   <energy>
    <i name="e_fr_energy">    -77.35896004 </i>
    <i name="e_wo_entrp">    -77.35896004 </i>
    <i name="e_0_energy">    -77.35896004 </i>
   </energy>
  </scstep>
  <scstep>
   <time name="diag">    0.05    0.05</time>
   <time name="diis">    0.10    0.10</time>
   <time name="orth">    0.01    0.01</time>
   <time name="total">    0.18    0.18</time>
   <energy>
    <i name="e_fr_energy">    -77.35890450 </i>
    <i name="e_wo_entrp">    -77.35890450 </i>
    <i name="e_0_energy">    -77.35890450 </i>
   </energy>
  </scstep>
  <scstep>
   <time name="diag">    0.05    0.05</time>
   <time name="diis">    0.10    0.10</time>
   <time name="orth">    0.01    0.01</time>
   <time name="total">    0.18    0.18</time>
   <energy>
    <i name="e_fr_energy">    -77.35894413 </i>
    <i name="e_wo_entrp">    -77.35894413 </i>
    <i name="e_0_energy">    -77.35894413 </i>
   </energy>
  </scstep>
  <scstep>
   <time name="diag">    0.05    0.05</time>
   <time name="diis">    0.05    0.05</time>
   <time name="orth">    0.01    0.01</time>
   <time name="total">    0.11    0.11</time>
   <energy>
    <i name="alphaZ">     68.30874667 </i>
    <i name="ewald">  -2730.49111673 </i>
    <i name="hartreedc">   -649.14107873 </i>
    <i name="XCdc">    185.45861496 </i>
    <i name="pawpsdc">   7312.15156916 </i>
    <i name="pawaedc">  -7362.13380427 </i>
    <i name="eentropy">      0.00000000 </i>
    <i name="bandstr">   -670.59969516 </i>
    <i name="atom">   3769.08782378 </i>
    <i name="e_fr_energy">    -77.35894031 </i>
    <i name="e_wo_entrp">    -77.35894031 </i>
    <i name="e_0_energy">    -77.35894031 </i>
   </energy>
  </scstep>
  <structure>
   <crystal>
    <varray name="basis" >
     <v>       7.59488444       0.00000000       0.00000000 </v>
     <v>       0.00000000       6.34018392       0.00000000 </v>
     <v>       0.00000000       0.00000000       5.99919325 </v>
    </varray>
    <i name="volume">    288.87893824 </i>
    <varray name="rec_basis" >
     <v>       0.13166757       0.00000000       0.00000000 </v>
     <v>       0.00000000       0.15772413       0.00000000 </v>
     <v>       0.00000000       0.00000000       0.16668908 </v>
    </varray>
   </crystal>
   <varray name="positions" >
    <v>       0.00000000       0.32858675       0.30033429 </v>
    <v>       0.50000000       0.67141325       0.80033429 </v>
    <v>       0.21905160       0.17359577       0.19243311 </v>
    <v>       0.28094840       0.82640423       0.69243311 </v>
    <v>       0.71905160       0.82640423       0.69243311 </v>
    <v>       0.78094840       0.17359577       0.19243311 </v>
    <v>       0.00000000       0.62755717       0.18003165 </v>
    <v>       0.50000000       0.37244283       0.68003165 </v>
    <v>       0.00000000       0.31830957       0.64114397 </v>
    <v>       0.50000000       0.68169043       0.14114397 </v>
    <v>       0.00000000       0.66270900       0.77688710 </v>
    <v>       0.50000000       0.33729100       0.27688710 </v>
    <v>       0.25277946       0.18535983       0.80497365 </v>
    <v>       0.24722054       0.81464017       0.30497365 </v>
    <v>       0.75277946       0.81464017       0.30497365 </v>
    <v>       0.74722054       0.18535983       0.80497365 </v>
   </varray>
  </structure>
  <varray name="forces" >
   <v>       0.00000000      -0.19285473       0.11167378 </v>
   <v>       0.00000000       0.19285473       0.11167378 </v>
   <v>      -0.00740567      -0.08676752      -0.03224941 </v>
   <v>       0.00740567       0.08676752      -0.03224941 </v>
   <v>      -0.00740567       0.08676752      -0.03224941 </v>
   <v>       0.00740567      -0.08676752      -0.03224941 </v>
   <v>       0.00000000      -0.00843304       0.11141215 </v>
   <v>       0.00000000       0.00843304       0.11141215 </v>
   <v>       0.00000000       0.00240742      -0.12568304 </v>
   <v>       0.00000000      -0.00240742      -0.12568304 </v>
   <v>       0.00000000      -0.04894074       0.11070607 </v>
   <v>       0.00000000       0.04894074       0.11070607 </v>
   <v>       0.06454316      -0.02560858      -0.07180507 </v>
   <v>      -0.06454316       0.02560858      -0.07180507 </v>
   <v>       0.06454316       0.02560858      -0.07180507 </v>
   <v>      -0.06454316      -0.02560858      -0.07180507 </v>
  </varray>
  <varray name="stress" >
   <v>      -0.62506544       0.00000000       0.00000000 </v>
   <v>       0.00000000      -3.40175686       0.00000000 </v>
   <v>       0.00000000       0.00000000      -2.15461955 </v>
  </varray>
  <energy>
   <i name="e_fr_energy">    -77.35894031 </i>
   <i name="e_wo_entrp">    -77.35894031 </i>
   <i name="e_0_energy">      0.00000000 </i>
  </energy>
  <time name="totalsc">    1.22    1.22</time>
 </calculation>
 <calculation>
  <scstep>
   <time name="dav">    0.18    0.18</time>
   <time name="total">    0.20    0.20</time>
   <energy>
    <i name="alphaZ">     68.57809611 </i>
    <i name="ewald">  -2733.51571061 </i>
    <i name="hartreedc">   -650.38155369 </i>
    <i name="XCdc">    185.74393274 </i>
    <i name="pawpsdc">   7312.10590679 </i>
    <i name="pawaedc">  -7362.08828815 </i>
    <i name="eentropy">      0.00000000 </i>
    <i name="bandstr">   -666.89708586 </i>
    <i name="atom">   3769.08782378 </i>
    <i name="e_fr_energy">    -77.36687891 </i>
    <i name="e_wo_entrp">    -77.36687891 </i>
    <i name="e_0_energy">    -77.36687891 </i>
   </energy>
  </scstep>
  <scstep>
   <time name="diag">    0.05    0.05</time>
   <time name="diis">    0.09    0.09</time>
   <time name="orth">    0.01    0.01</time>
   <time name="total">    0.16    0.16</time>
   <energy>
    <i name="e_fr_energy">    -77.36980973 </i>
    <i name="e_wo_entrp">    -77.36980973 </i>
    <i name="e_0_energy">    -77.36980973 </i>
   </energy>
  </scstep>
  <scstep>
   <time name="diag">    0.05    0.05</time>
   <time name="diis">    0.11    0.11</time>
   <time name="orth">    0.01    0.01</time>
   <time name="total">    0.19    0.19</time>
   <energy>
    <i name="e_fr_energy">    -77.36948324 </i>
    <i name="e_wo_entrp">    -77.36948324 </i>
    <i name="e_0_energy">    -77.36948324 </i>
   </energy>
  </scstep>
  <scstep>
   <time name="diag">    0.05    0.05</time>
   <time name="diis">    0.11    0.11</time>
   <time name="orth">    0.01    0.01</time>
   <time name="total">    0.18    0.18</time>
   <energy>
    <i name="e_fr_energy">    -77.36949188 </i>
    <i name="e_wo_entrp">    -77.36949188 </i>
    <i name="e_0_energy">    -77.36949188 </i>
   </energy>
  </scstep>
  <scstep>
   <time name="diag">    0.05    0.05</time>
   <time name="diis">    0.10    0.10</time>
   <time name="orth">    0.01    0.01</time>
   <time name="total">    0.18    0.18</time>
   <energy>
    <i name="e_fr_energy">    -77.36961192 </i>
    <i name="e_wo_entrp">    -77.36961192 </i>
    <i name="e_0_energy">    -77.36961192 </i>
   </energy>
  </scstep>
  <scstep>
   <time name="diag">    0.05    0.05</time>
   <time name="diis">    0.09    0.09</time>
   <time name="orth">    0.01    0.01</time>
   <time name="total">    0.17    0.17</time>
   <energy>
    <i name="e_fr_energy">    -77.36964918 </i>
    <i name="e_wo_entrp">    -77.36964918 </i>
    <i name="e_0_energy">    -77.36964918 </i>
   </energy>
  </scstep>
  <scstep>
   <time name="diag">    0.05    0.05</time>
   <time name="diis">    0.06    0.06</time>
   <time name="orth">    0.01    0.01</time>
   <time name="total">    0.12    0.12</time>
   <energy>
    <i name="alphaZ">     68.57809611 </i>
    <i name="ewald">  -2733.51571061 </i>
    <i name="hartreedc">   -648.28429002 </i>
    <i name="XCdc">    185.58751121 </i>
    <i name="pawpsdc">   7371.59441906 </i>
    <i name="pawaedc">  -7421.56908178 </i>
    <i name="eentropy">      0.00000000 </i>
    <i name="bandstr">   -668.84841685 </i>
    <i name="atom">   3769.08782378 </i>
    <i name="e_fr_energy">    -77.36964911 </i>
    <i name="e_wo_entrp">    -77.36964911 </i>
    <i name="e_0_energy">    -77.36964911 </i>
   </energy>
  </scstep>
  <structure>
   <crystal>
    <varray name="basis" >
     <v>       7.58682748       0.00000000       0.00000000 </v>
     <v>       0.00000000       6.33142786       0.00000000 </v>
     <v>       0.00000000       0.00000000       5.99024936 </v>
    </varray>
    <i name="volume">    287.74432848 </i>
    <varray name="rec_basis" >
     <v>       0.13180740       0.00000000       0.00000000 </v>
     <v>       0.00000000       0.15794226       0.00000000 </v>
     <v>       0.00000000       0.00000000       0.16693796 </v>
    </varray>
   </crystal>
   <varray name="positions" >
    <v>       0.00000000       0.32722209       0.30111581 </v>
    <v>       0.50000000       0.67277791       0.80111581 </v>
    <v>       0.21910173       0.17314326       0.19130020 </v>
    <v>       0.28089827       0.82685674       0.69130020 </v>
    <v>       0.71910173       0.82685674       0.69130020 </v>
    <v>       0.78089827       0.17314326       0.19130020 </v>
    <v>       0.00000000       0.62675257       0.18163778 </v>
    <v>       0.50000000       0.37324743       0.68163778 </v>
    <v>       0.00000000       0.31795471       0.64054419 </v>
    <v>       0.50000000       0.68204529       0.14054419 </v>
    <v>       0.00000000       0.66259003       0.77823217 </v>
    <v>       0.50000000       0.33740997       0.27823217 </v>
    <v>       0.25328141       0.18556567       0.80454008 </v>
    <v>       0.24671859       0.81443433       0.30454008 </v>
    <v>       0.75328141       0.81443433       0.30454008 </v>
    <v>       0.74671859       0.18556567       0.80454008 </v>
   </varray>
  </structure>
  <varray name="forces" >
   <v>       0.00000000      -0.15399563      -0.03647190 </v>
   <v>       0.00000000       0.15399563      -0.03647190 </v>
   <v>       0.01200348      -0.10070499      -0.01136980 </v>
   <v>      -0.01200348       0.10070499      -0.01136980 </v>
   <v>       0.01200348       0.10070499      -0.01136980 </v>
   <v>      -0.01200348      -0.10070499      -0.01136980 </v>
   <v>       0.00000000       0.02106668       0.07142473 </v>
   <v>       0.00000000      -0.02106668       0.07142473 </v>
   <v>       0.00000000      -0.03009619       0.03745634 </v>
   <v>       0.00000000       0.03009619       0.03745634 </v>
   <v>       0.00000000      -0.04159541       0.10662119 </v>
   <v>       0.00000000       0.04159541       0.10662119 </v>
   <v>       0.04973543      -0.03069857      -0.07814538 </v>
   <v>      -0.04973543       0.03069857      -0.07814538 </v>
   <v>       0.04973543       0.03069857      -0.07814538 </v>
   <v>      -0.04973543      -0.03069857      -0.07814538 </v>
  </varray>
  <varray name="stress" >
   <v>       1.18769015       0.00000000       0.00000000 </v>
   <v>       0.00000000      -1.07892019       0.00000000 </v>
   <v>       0.00000000       0.00000000       3.16230037 </v>
  </varray>
  <energy>
   <i name="e_fr_energy">    -77.36964911 </i>
   <i name="e_wo_entrp">    -77.36964911 </i>
   <i name="e_0_energy">      0.00000000 </i>
  </energy>
  <time name="totalsc">    1.39    1.39</time>
 </calculation>
 <calculation>
  <scstep>
   <time name="dav">    0.17    0.17</time>
   <time name="total">    0.19    0.19</time>
   <energy>
    <i name="alphaZ">     68.90690657 </i>
    <i name="ewald">  -2737.18497858 </i>
    <i name="hartreedc">   -649.79585762 </i>
    <i name="XCdc">    185.93376823 </i>
    <i name="pawpsdc">   7371.40195840 </i>
    <i name="pawaedc">  -7421.37690591 </i>
    <i name="eentropy">      0.00000000 </i>
    <i name="bandstr">   -664.34056200 </i>
    <i name="atom">   3769.08782378 </i>
    <i name="e_fr_energy">    -77.36784712 </i>
    <i name="e_wo_entrp">    -77.36784712 </i>
    <i name="e_0_energy">    -77.36784712 </i>
   </energy>
  </scstep>
  <scstep>
   <time name="diag">    0.05    0.05</time>
   <time name="diis">    0.09    0.09</time>
   <time name="orth">    0.01    0.01</time>
   <time name="total">    0.17    0.17</time>
   <energy>
    <i name="e_fr_energy">    -77.37212697 </i>
    <i name="e_wo_entrp">    -77.37212697 </i>
    <i name="e_0_energy">    -77.37212697 </i>
   </energy>
  </scstep>
  <scstep>
   <time name="diag">    0.05    0.05</time>
   <time name="diis">    0.11    0.11</time>
   <time name="orth">    0.01    0.01</time>
   <time name="total">    0.19    0.19</time>
   <energy>
    <i name="e_fr_energy">    -77.37178702 </i>
    <i name="e_wo_entrp">    -77.37178702 </i>
    <i name="e_0_energy">    -77.37178702 </i>
   </energy>
  </scstep>
  <scstep>
   <time name="diag">    0.05    0.05</time>
   <time name="diis">    0.11    0.11</time>
   <time name="orth">    0.01    0.01</time>
   <time name="total">    0.18    0.19</time>
   <energy>
    <i name="e_fr_energy">    -77.37180888 </i>
    <i name="e_wo_entrp">    -77.37180888 </i>
    <i name="e_0_energy">    -77.37180888 </i>
   </energy>
  </scstep>
  <scstep>
   <time name="diag">    0.05    0.05</time>
   <time name="diis">    0.11    0.11</time>
   <time name="orth">    0.01    0.01</time>
   <time name="total">    0.18    0.18</time>
   <energy>
    <i name="e_fr_energy">    -77.37198985 </i>
    <i name="e_wo_entrp">    -77.37198985 </i>
    <i name="e_0_energy">    -77.37198985 </i>
   </energy>
  </scstep>
  <scstep>
   <time name="diag">    0.05    0.05</time>
   <time name="diis">    0.10    0.10</time>
   <time name="orth">    0.01    0.01</time>
   <time name="total">    0.18    0.18</time>
   <energy>
    <i name="e_fr_energy">    -77.37205510 </i>
    <i name="e_wo_entrp">    -77.37205510 </i>
    <i name="e_0_energy">    -77.37205510 </i>
   </energy>
  </scstep>
  <scstep>
   <time name="diag">    0.05    0.05</time>
   <time name="diis">    0.07    0.07</time>
   <time name="orth">    0.01    0.01</time>
   <time name="total">    0.13    0.14</time>
   <energy>
    <i name="alphaZ">     68.90690657 </i>
    <i name="ewald">  -2737.18497858 </i>
    <i name="hartreedc">   -647.25106969 </i>
    <i name="XCdc">    185.74332566 </i>
    <i name="pawpsdc">   7443.15852565 </i>
    <i name="pawaedc">  -7493.12803872 </i>
    <i name="eentropy">      0.00000000 </i>
    <i name="bandstr">   -666.70455988 </i>
    <i name="atom">   3769.08782378 </i>
    <i name="e_fr_energy">    -77.37206520 </i>
    <i name="e_wo_entrp">    -77.37206520 </i>
    <i name="e_0_energy">    -77.37206520 </i>
   </energy>
  </scstep>
  <structure>
   <crystal>
    <varray name="basis" >
     <v>       7.57704916       0.00000000       0.00000000 </v>
     <v>       0.00000000       6.32080107       0.00000000 </v>
     <v>       0.00000000       0.00000000       5.97939461 </v>
    </varray>
    <i name="volume">    286.37126805 </i>
    <varray name="rec_basis" >
     <v>       0.13197750       0.00000000       0.00000000 </v>
     <v>       0.00000000       0.15820780       0.00000000 </v>
     <v>       0.00000000       0.00000000       0.16724101 </v>
    </varray>
   </crystal>
   <varray name="positions" >
    <v>       0.00000000       0.32556358       0.30206570 </v>
    <v>       0.50000000       0.67443642       0.80206570 </v>
    <v>       0.21916264       0.17259332       0.18992320 </v>
    <v>       0.28083736       0.82740668       0.68992320 </v>
    <v>       0.71916264       0.82740668       0.68992320 </v>
    <v>       0.78083736       0.17259332       0.18992320 </v>
    <v>       0.00000000       0.62577471       0.18358997 </v>
    <v>       0.50000000       0.37422529       0.68358997 </v>
    <v>       0.00000000       0.31752343       0.63981519 </v>
    <v>       0.50000000       0.68247657       0.13981519 </v>
    <v>       0.00000000       0.66244543       0.77986704 </v>
    <v>       0.50000000       0.33755457       0.27986704 </v>
    <v>       0.25389125       0.18581583       0.80401311 </v>
    <v>       0.24610875       0.81418417       0.30401311 </v>
    <v>       0.75389125       0.81418417       0.30401311 </v>
    <v>       0.74610875       0.18581583       0.80401311 </v>
   </varray>
  </structure>
  <varray name="forces" >
   <v>       0.00000000      -0.11353966      -0.22989796 </v>
   <v>       0.00000000       0.11353966      -0.22989796 </v>
   <v>       0.03418779      -0.11497465       0.02735868 </v>
   <v>      -0.03418779       0.11497465       0.02735868 </v>
   <v>       0.03418779       0.11497465       0.02735868 </v>
   <v>      -0.03418779      -0.11497465       0.02735868 </v>
   <v>       0.00000000       0.06776266       0.00578271 </v>
   <v>       0.00000000      -0.06776266       0.00578271 </v>
   <v>       0.00000000      -0.06299030       0.24326785 </v>
   <v>       0.00000000       0.06299030       0.24326785 </v>
   <v>       0.00000000      -0.03050128       0.10053464 </v>
   <v>       0.00000000       0.03050128       0.10053464 </v>
   <v>       0.03135959      -0.03550129      -0.08720230 </v>
   <v>      -0.03135959       0.03550129      -0.08720230 </v>
   <v>       0.03135959       0.03550129      -0.08720230 </v>
   <v>      -0.03135959      -0.03550129      -0.08720230 </v>
  </varray>
  <varray name="stress" >
   <v>       3.30708889       0.00000000       0.00000000 </v>
   <v>       0.00000000       2.09440354       0.00000000 </v>
   <v>       0.00000000       0.00000000      10.04902590 </v>
  </varray>
  <energy>
   <i name="e_fr_energy">    -77.37206520 </i>
   <i name="e_wo_entrp">    -77.37206520 </i>
   <i name="e_0_energy">      0.00000000 </i>
  </energy>
  <time name="totalsc">    1.41    1.42</time>
 </calculation>
 <calculation>
  <scstep>
   <time name="dav">    0.19    0.19</time>
   <time name="total">    0.21    0.21</time>
   <energy>
    <i name="alphaZ">     68.90483889 </i>
    <i name="ewald">  -2737.61545247 </i>
    <i name="hartreedc">   -646.89010286 </i>
    <i name="XCdc">    185.73375515 </i>
    <i name="pawpsdc">   7442.81334362 </i>
    <i name="pawaedc">  -7492.78413065 </i>
    <i name="eentropy">      0.00000000 </i>
    <i name="bandstr">   -666.62527848 </i>
    <i name="atom">   3769.08782378 </i>
    <i name="e_fr_energy">    -77.37520301 </i>
    <i name="e_wo_entrp">    -77.37520301 </i>
    <i name="e_0_energy">    -77.37520301 </i>
   </energy>
  </scstep>
  <scstep>
   <time name="diag">    0.05    0.05</time>
   <time name="diis">    0.09    0.09</time>
   <time name="orth">    0.01    0.01</time>
   <time name="total">    0.17    0.17</time>
   <energy>
    <i name="e_fr_energy">    -77.37667579 </i>
    <i name="e_wo_entrp">    -77.37667579 </i>
    <i name="e_0_energy">    -77.37667579 </i>
   </energy>
  </scstep>
  <scstep>
   <time name="diag">    0.05    0.05</time>
   <time name="diis">    0.11    0.11</time>
   <time name="orth">    0.01    0.01</time>
   <time name="total">    0.19    0.19</time>
   <energy>
    <i name="e_fr_energy">    -77.37683785 </i>
    <i name="e_wo_entrp">    -77.37683785 </i>
    <i name="e_0_energy">    -77.37683785 </i>
   </energy>
  </scstep>
  <scstep>
   <time name="diag">    0.05    0.05</time>
   <time name="diis">    0.10    0.10</time>
   <time name="orth">    0.01    0.01</time>
   <time name="total">    0.18    0.18</time>
   <energy>
    <i name="e_fr_energy">    -77.37686139 </i>
    <i name="e_wo_entrp">    -77.37686139 </i>
[...]
       <r>   -9.4296    1.0000 </r>
       <r>   -5.2518    1.0000 </r>
       <r>   -5.1609    1.0000 </r>
       <r>   -2.3470    1.0000 </r>
       <r>   -2.2959    1.0000 </r>
       <r>   -2.2239    1.0000 </r>
       <r>   -2.1930    1.0000 </r>
       <r>   -2.0227    1.0000 </r>
       <r>   -1.9776    1.0000 </r>
       <r>   -0.2106    1.0000 </r>
       <r>   -0.1444    1.0000 </r>
       <r>   -0.0105    1.0000 </r>
       <r>    0.0622    1.0000 </r>
       <r>    0.3811    1.0000 </r>
       <r>    0.4353    1.0000 </r>
       <r>    0.8903    1.0000 </r>
       <r>    0.9347    1.0000 </r>
       <r>    1.0161    1.0000 </r>
       <r>    1.2292    1.0000 </r>
       <r>    1.5765    1.0000 </r>
       <r>    1.6844    1.0000 </r>
       <r>    1.7436    1.0000 </r>
       <r>    1.8701    1.0000 </r>
       <r>    1.9965    1.0000 </r>
       <r>    2.0519    1.0000 </r>
       <r>    5.0653    0.0000 </r>
       <r>    5.2776    0.0000 </r>
       <r>    6.3328    0.0000 </r>
       <r>    6.4539    0.0000 </r>
       <r>    6.6354    0.0000 </r>
       <r>    6.7899    0.0000 </r>
       <r>    6.8727    0.0000 </r>
       <r>    6.9439    0.0000 </r>
       <r>    8.1913    0.0000 </r>
       <r>    8.4512    0.0000 </r>
      </set>
      <set comment="kpoint 8">
       <r>  -41.0779    1.0000 </r>
       <r>  -41.0779    1.0000 </r>
       <r>  -40.7027    1.0000 </r>
       <r>  -40.7025    1.0000 </r>
       <r>  -40.7023    1.0000 </r>
       <r>  -40.7021    1.0000 </r>
       <r>  -12.5136    1.0000 </r>
       <r>  -12.5007    1.0000 </r>
       <r>   -9.6115    1.0000 </r>
       <r>   -9.5746    1.0000 </r>
       <r>   -9.5528    1.0000 </r>
       <r>   -9.4893    1.0000 </r>
       <r>   -9.4491    1.0000 </r>
       <r>   -9.4244    1.0000 </r>
       <r>   -5.1705    1.0000 </r>
       <r>   -5.1325    1.0000 </r>
       <r>   -2.4055    1.0000 </r>
       <r>   -2.3682    1.0000 </r>
       <r>   -2.1525    1.0000 </r>
       <r>   -2.1474    1.0000 </r>
       <r>   -1.9899    1.0000 </r>
       <r>   -1.9684    1.0000 </r>
       <r>   -0.3246    1.0000 </r>
       <r>   -0.2337    1.0000 </r>
       <r>   -0.0915    1.0000 </r>
       <r>   -0.0313    1.0000 </r>
       <r>    0.5022    1.0000 </r>
       <r>    0.5535    1.0000 </r>
       <r>    0.7941    1.0000 </r>
       <r>    0.9031    1.0000 </r>
       <r>    1.0097    1.0000 </r>
       <r>    1.1109    1.0000 </r>
       <r>    1.5398    1.0000 </r>
       <r>    1.6056    1.0000 </r>
       <r>    1.7747    1.0000 </r>
       <r>    1.8308    1.0000 </r>
       <r>    2.0013    1.0000 </r>
       <r>    2.0671    1.0000 </r>
       <r>    5.3803    0.0000 </r>
       <r>    5.5408    0.0000 </r>
       <r>    6.4557    0.0000 </r>
       <r>    6.5108    0.0000 </r>
       <r>    6.7893    0.0000 </r>
       <r>    6.9074    0.0000 </r>
       <r>    7.1372    0.0000 </r>
       <r>    7.2139    0.0000 </r>
       <r>    8.1474    0.0000 </r>
       <r>    8.3323    0.0000 </r>
      </set>
     </set>
    </set>
   </array>
  </eigenvalues>
  <separator name="orbital magnetization" >
   <v name="MAGDIPOLOUT">      0.00000000      0.00000000      0.00000000</v>
  </separator>
  <dos>
   <i name="efermi">      2.19959609 </i>
   <total>
    <array>
     <dimension dim="1">gridpoints</dimension>
     <dimension dim="2">spin</dimension>
     <field>energy</field>
     <field>total</field>
     <field>integrated</field>
     <set>
      <set comment="spin 1">
       <r>   -43.5695     0.0000     0.0000 </r>
       <r>   -43.3867     0.0000     0.0000 </r>
       <r>   -43.2040     0.0000     0.0000 </r>
       <r>   -43.0213     0.0000     0.0000 </r>
       <r>   -42.8386     0.0000     0.0000 </r>
       <r>   -42.6559     0.0000     0.0000 </r>
       <r>   -42.4732     0.0000     0.0000 </r>
       <r>   -42.2905     0.0000     0.0000 </r>
       <r>   -42.1078     0.0000     0.0000 </r>
       <r>   -41.9251     0.0000     0.0000 </r>
       <r>   -41.7423     0.0000     0.0000 </r>
       <r>   -41.5596     0.0000     0.0000 </r>
       <r>   -41.3769     0.0000     0.0000 </r>
       <r>   -41.1942     0.0000     0.0000 </r>
       <r>   -41.0115     0.0000     4.0000 </r>
       <r>   -40.8288     0.0000     4.0000 </r>
       <r>   -40.6461     0.0000    12.0000 </r>
       <r>   -40.4634     0.0000    12.0000 </r>
       <r>   -40.2807     0.0000    12.0000 </r>
       <r>   -40.0979     0.0000    12.0000 </r>
       <r>   -39.9152     0.0000    12.0000 </r>
       <r>   -39.7325     0.0000    12.0000 </r>
       <r>   -39.5498     0.0000    12.0000 </r>
       <r>   -39.3671     0.0000    12.0000 </r>
       <r>   -39.1844     0.0000    12.0000 </r>
       <r>   -39.0017     0.0000    12.0000 </r>
       <r>   -38.8190     0.0000    12.0000 </r>
       <r>   -38.6363     0.0000    12.0000 </r>
       <r>   -38.4535     0.0000    12.0000 </r>
       <r>   -38.2708     0.0000    12.0000 </r>
       <r>   -38.0881     0.0000    12.0000 </r>
       <r>   -37.9054     0.0000    12.0000 </r>
       <r>   -37.7227     0.0000    12.0000 </r>
       <r>   -37.5400     0.0000    12.0000 </r>
       <r>   -37.3573     0.0000    12.0000 </r>
       <r>   -37.1746     0.0000    12.0000 </r>
       <r>   -36.9919     0.0000    12.0000 </r>
       <r>   -36.8092     0.0000    12.0000 </r>
       <r>   -36.6264     0.0000    12.0000 </r>
       <r>   -36.4437     0.0000    12.0000 </r>
       <r>   -36.2610     0.0000    12.0000 </r>
       <r>   -36.0783     0.0000    12.0000 </r>
       <r>   -35.8956     0.0000    12.0000 </r>
       <r>   -35.7129     0.0000    12.0000 </r>
       <r>   -35.5302     0.0000    12.0000 </r>
       <r>   -35.3475     0.0000    12.0000 </r>
       <r>   -35.1648     0.0000    12.0000 </r>
       <r>   -34.9820     0.0000    12.0000 </r>
       <r>   -34.7993     0.0000    12.0000 </r>
       <r>   -34.6166     0.0000    12.0000 </r>
       <r>   -34.4339     0.0000    12.0000 </r>
       <r>   -34.2512     0.0000    12.0000 </r>
       <r>   -34.0685     0.0000    12.0000 </r>
       <r>   -33.8858     0.0000    12.0000 </r>
       <r>   -33.7031     0.0000    12.0000 </r>
       <r>   -33.5204     0.0000    12.0000 </r>
       <r>   -33.3376     0.0000    12.0000 </r>
       <r>   -33.1549     0.0000    12.0000 </r>
       <r>   -32.9722     0.0000    12.0000 </r>
       <r>   -32.7895     0.0000    12.0000 </r>
       <r>   -32.6068     0.0000    12.0000 </r>
       <r>   -32.4241     0.0000    12.0000 </r>
       <r>   -32.2414     0.0000    12.0000 </r>
       <r>   -32.0587     0.0000    12.0000 </r>
       <r>   -31.8760     0.0000    12.0000 </r>
       <r>   -31.6933     0.0000    12.0000 </r>
       <r>   -31.5105     0.0000    12.0000 </r>
       <r>   -31.3278     0.0000    12.0000 </r>
       <r>   -31.1451     0.0000    12.0000 </r>
       <r>   -30.9624     0.0000    12.0000 </r>
       <r>   -30.7797     0.0000    12.0000 </r>
       <r>   -30.5970     0.0000    12.0000 </r>
       <r>   -30.4143     0.0000    12.0000 </r>
       <r>   -30.2316     0.0000    12.0000 </r>
       <r>   -30.0489     0.0000    12.0000 </r>
       <r>   -29.8661     0.0000    12.0000 </r>
       <r>   -29.6834     0.0000    12.0000 </r>
       <r>   -29.5007     0.0000    12.0000 </r>
       <r>   -29.3180     0.0000    12.0000 </r>
       <r>   -29.1353     0.0000    12.0000 </r>
       <r>   -28.9526     0.0000    12.0000 </r>
       <r>   -28.7699     0.0000    12.0000 </r>
       <r>   -28.5872     0.0000    12.0000 </r>
       <r>   -28.4045     0.0000    12.0000 </r>
       <r>   -28.2217     0.0000    12.0000 </r>
       <r>   -28.0390     0.0000    12.0000 </r>
       <r>   -27.8563     0.0000    12.0000 </r>
       <r>   -27.6736     0.0000    12.0000 </r>
       <r>   -27.4909     0.0000    12.0000 </r>
       <r>   -27.3082     0.0000    12.0000 </r>
       <r>   -27.1255     0.0000    12.0000 </r>
       <r>   -26.9428     0.0000    12.0000 </r>
       <r>   -26.7601     0.0000    12.0000 </r>
       <r>   -26.5773     0.0000    12.0000 </r>
       <r>   -26.3946     0.0000    12.0000 </r>
       <r>   -26.2119     0.0000    12.0000 </r>
       <r>   -26.0292     0.0000    12.0000 </r>
       <r>   -25.8465     0.0000    12.0000 </r>
       <r>   -25.6638     0.0000    12.0000 </r>
       <r>   -25.4811     0.0000    12.0000 </r>
       <r>   -25.2984     0.0000    12.0000 </r>
       <r>   -25.1157     0.0000    12.0000 </r>
       <r>   -24.9330     0.0000    12.0000 </r>
       <r>   -24.7502     0.0000    12.0000 </r>
       <r>   -24.5675     0.0000    12.0000 </r>
       <r>   -24.3848     0.0000    12.0000 </r>
       <r>   -24.2021     0.0000    12.0000 </r>
       <r>   -24.0194     0.0000    12.0000 </r>
       <r>   -23.8367     0.0000    12.0000 </r>
       <r>   -23.6540     0.0000    12.0000 </r>
       <r>   -23.4713     0.0000    12.0000 </r>
       <r>   -23.2886     0.0000    12.0000 </r>
       <r>   -23.1058     0.0000    12.0000 </r>
       <r>   -22.9231     0.0000    12.0000 </r>
       <r>   -22.7404     0.0000    12.0000 </r>
       <r>   -22.5577     0.0000    12.0000 </r>
       <r>   -22.3750     0.0000    12.0000 </r>
       <r>   -22.1923     0.0000    12.0000 </r>
       <r>   -22.0096     0.0000    12.0000 </r>
       <r>   -21.8269     0.0000    12.0000 </r>
       <r>   -21.6442     0.0000    12.0000 </r>
       <r>   -21.4614     0.0000    12.0000 </r>
       <r>   -21.2787     0.0000    12.0000 </r>
       <r>   -21.0960     0.0000    12.0000 </r>
       <r>   -20.9133     0.0000    12.0000 </r>
       <r>   -20.7306     0.0000    12.0000 </r>
       <r>   -20.5479     0.0000    12.0000 </r>
       <r>   -20.3652     0.0000    12.0000 </r>
       <r>   -20.1825     0.0000    12.0000 </r>
       <r>   -19.9998     0.0000    12.0000 </r>
       <r>   -19.8171     0.0000    12.0000 </r>
       <r>   -19.6343     0.0000    12.0000 </r>
       <r>   -19.4516     0.0000    12.0000 </r>
       <r>   -19.2689     0.0000    12.0000 </r>
       <r>   -19.0862     0.0000    12.0000 </r>
       <r>   -18.9035     0.0000    12.0000 </r>
       <r>   -18.7208     0.0000    12.0000 </r>
       <r>   -18.5381     0.0000    12.0000 </r>
       <r>   -18.3554     0.0000    12.0000 </r>
       <r>   -18.1727     0.0000    12.0000 </r>
       <r>   -17.9899     0.0000    12.0000 </r>
       <r>   -17.8072     0.0000    12.0000 </r>
       <r>   -17.6245     0.0000    12.0000 </r>
       <r>   -17.4418     0.0000    12.0000 </r>
       <r>   -17.2591     0.0000    12.0000 </r>
       <r>   -17.0764     0.0000    12.0000 </r>
       <r>   -16.8937     0.0000    12.0000 </r>
       <r>   -16.7110     0.0000    12.0000 </r>
       <r>   -16.5283     0.0000    12.0000 </r>
       <r>   -16.3455     0.0000    12.0000 </r>
       <r>   -16.1628     0.0000    12.0000 </r>
       <r>   -15.9801     0.0000    12.0000 </r>
       <r>   -15.7974     0.0000    12.0000 </r>
       <r>   -15.6147     0.0000    12.0000 </r>
       <r>   -15.4320     0.0000    12.0000 </r>
       <r>   -15.2493     0.0000    12.0000 </r>
       <r>   -15.0666     0.0000    12.0000 </r>
       <r>   -14.8839     0.0000    12.0000 </r>
       <r>   -14.7011     0.0000    12.0000 </r>
       <r>   -14.5184     0.0000    12.0000 </r>
       <r>   -14.3357     0.0000    12.0000 </r>
       <r>   -14.1530     0.0000    12.0000 </r>
       <r>   -13.9703     0.0000    12.0000 </r>
       <r>   -13.7876     0.0000    12.0000 </r>
       <r>   -13.6049     0.0000    12.0000 </r>
       <r>   -13.4222     0.0000    12.0000 </r>
       <r>   -13.2395     0.0000    12.0000 </r>
       <r>   -13.0568     0.0000    12.0000 </r>
       <r>   -12.8740     0.0000    12.0000 </r>
       <r>   -12.6913     0.0000    12.0000 </r>
       <r>   -12.5086    47.7566    14.6675 </r>
       <r>   -12.3259     0.0000    16.0000 </r>
       <r>   -12.1432     0.0000    16.0000 </r>
       <r>   -11.9605     0.0000    16.0000 </r>
       <r>   -11.7778     0.0000    16.0000 </r>
       <r>   -11.5951     0.0000    16.0000 </r>
       <r>   -11.4124     0.0000    16.0000 </r>
       <r>   -11.2296     0.0000    16.0000 </r>
       <r>   -11.0469     0.0000    16.0000 </r>
       <r>   -10.8642     0.0000    16.0000 </r>
       <r>   -10.6815     0.0000    16.0000 </r>
       <r>   -10.4988     0.0000    16.0000 </r>
       <r>   -10.3161     0.0000    16.0000 </r>
       <r>   -10.1334     0.0000    16.0000 </r>
       <r>    -9.9507     0.0000    16.0000 </r>
       <r>    -9.7680     0.0000    16.0000 </r>
       <r>    -9.5852    30.5010    18.2580 </r>
       <r>    -9.4025    39.0977    25.5592 </r>
       <r>    -9.2198     0.0000    28.0000 </r>
       <r>    -9.0371     0.0000    28.0000 </r>
       <r>    -8.8544     0.0000    28.0000 </r>
       <r>    -8.6717     0.0000    28.0000 </r>
       <r>    -8.4890     0.0000    28.0000 </r>
       <r>    -8.3063     0.0000    28.0000 </r>
       <r>    -8.1236     0.0000    28.0000 </r>
       <r>    -7.9409     0.0000    28.0000 </r>
       <r>    -7.7581     0.0000    28.0000 </r>
       <r>    -7.5754     0.0000    28.0000 </r>
       <r>    -7.3927     0.0000    28.0000 </r>
       <r>    -7.2100     0.0000    28.0000 </r>
       <r>    -7.0273     0.0000    28.0000 </r>
       <r>    -6.8446     0.0000    28.0000 </r>
       <r>    -6.6619     0.0000    28.0000 </r>
       <r>    -6.4792     0.0000    28.0000 </r>
       <r>    -6.2965     0.0000    28.0000 </r>
       <r>    -6.1137     0.0000    28.0000 </r>
       <r>    -5.9310     0.0000    28.0000 </r>
       <r>    -5.7483     0.0000    28.0000 </r>
       <r>    -5.5656     0.0000    28.0000 </r>
       <r>    -5.3829     6.0755    28.5649 </r>
       <r>    -5.2002    17.8466    30.0848 </r>
       <r>    -5.0175     0.0000    32.0000 </r>
       <r>    -4.8348     0.0000    32.0000 </r>
       <r>    -4.6521     0.0000    32.0000 </r>
       <r>    -4.4693     0.0000    32.0000 </r>
       <r>    -4.2866     0.0000    32.0000 </r>
       <r>    -4.1039     0.0000    32.0000 </r>
       <r>    -3.9212     0.0000    32.0000 </r>
       <r>    -3.7385     0.0000    32.0000 </r>
       <r>    -3.5558     0.0000    32.0000 </r>
       <r>    -3.3731     0.0000    32.0000 </r>
       <r>    -3.1904     0.0000    32.0000 </r>
       <r>    -3.0077     0.0000    32.0000 </r>
       <r>    -2.8249     0.0000    32.0000 </r>
       <r>    -2.6422     0.0000    32.0000 </r>
       <r>    -2.4595    15.2321    34.2964 </r>
       <r>    -2.2768    13.7589    37.4777 </r>
       <r>    -2.0941    14.3483    41.7235 </r>
       <r>    -1.9114     0.0000    44.0000 </r>
       <r>    -1.7287     0.0000    44.0000 </r>
       <r>    -1.5460     0.0000    44.0000 </r>
       <r>    -1.3633     0.0000    44.0000 </r>
       <r>    -1.1806     0.0000    44.0000 </r>
       <r>    -0.9978     0.0000    44.0000 </r>
       <r>    -0.8151     0.0000    44.0000 </r>
       <r>    -0.6324     0.0000    44.0000 </r>
       <r>    -0.4497     0.0000    44.0000 </r>
       <r>    -0.2670     5.6817    44.2407 </r>
       <r>    -0.0843    12.6346    47.3843 </r>
       <r>     0.0984    14.2203    50.3048 </r>
       <r>     0.2811     0.0000    52.0000 </r>
       <r>     0.4638    11.4331    53.5751 </r>
       <r>     0.6466     4.8653    55.1963 </r>
       <r>     0.8293    10.8589    56.4892 </r>
       <r>     1.0120    21.9199    59.3173 </r>
       <r>     1.1947     9.8613    61.9236 </r>
       <r>     1.3774     7.3910    63.8809 </r>
       <r>     1.5601    20.1018    65.9855 </r>
       <r>     1.7428    13.3400    68.5791 </r>
       <r>     1.9255    26.2487    72.4786 </r>
       <r>     2.1082     9.1510    75.6634 </r>
       <r>     2.2910     0.0000    76.0000 </r>
       <r>     2.4737     0.0000    76.0000 </r>
       <r>     2.6564     0.0000    76.0000 </r>
       <r>     2.8391     0.0000    76.0000 </r>
       <r>     3.0218     0.0000    76.0000 </r>
       <r>     3.2045     0.0000    76.0000 </r>
       <r>     3.3872     0.0000    76.0000 </r>
       <r>     3.5699     0.0000    76.0000 </r>
       <r>     3.7526     0.0000    76.0000 </r>
       <r>     3.9353     0.0000    76.0000 </r>
       <r>     4.1181     0.0000    76.0000 </r>
       <r>     4.3008     0.0000    76.0000 </r>
       <r>     4.4835     0.0000    76.0000 </r>
       <r>     4.6662     0.0000    76.0000 </r>
       <r>     4.8489     0.0000    76.0000 </r>
       <r>     5.0316     0.0000    76.0000 </r>
       <r>     5.2143     2.5441    76.5839 </r>
       <r>     5.3970     6.8159    77.3093 </r>
       <r>     5.5797     5.0838    78.3785 </r>
       <r>     5.7625     7.6443    79.2033 </r>
       <r>     5.9452     1.6654    79.8801 </r>
       <r>     6.1279     1.7251    80.1083 </r>
       <r>     6.3106     3.7885    80.6821 </r>
       <r>     6.4933    14.1385    82.5475 </r>
       <r>     6.6760     9.4354    84.8229 </r>
       <r>     6.8587     7.9223    86.6531 </r>
       <r>     7.0414    11.5744    89.1768 </r>
       <r>     7.2241    10.2176    91.6399 </r>
       <r>     7.4069     0.0000    92.0000 </r>
       <r>     7.5896     0.0000    92.0000 </r>
       <r>     7.7723     0.0000    92.0000 </r>
       <r>     7.9550     0.0000    92.0000 </r>
       <r>     8.1377     2.7308    92.2255 </r>
       <r>     8.3204     2.5814    93.7313 </r>
       <r>     8.5031    10.2084    94.9539 </r>
       <r>     8.6858     1.4546    95.8963 </r>
       <r>     8.8685     0.0000    96.0000 </r>
       <r>     9.0512     0.0000    96.0000 </r>
       <r>     9.2340     0.0000    96.0000 </r>
       <r>     9.4167     0.0000    96.0000 </r>
       <r>     9.5994     0.0000    96.0000 </r>
       <r>     9.7821     0.0000    96.0000 </r>
       <r>     9.9648     0.0000    96.0000 </r>
       <r>    10.1475     0.0000    96.0000 </r>
       <r>    10.3302     0.0000    96.0000 </r>
       <r>    10.5129     0.0000    96.0000 </r>
       <r>    10.6956     0.0000    96.0000 </r>
       <r>    10.8784     0.0000    96.0000 </r>
       <r>    11.0611     0.0000    96.0000 </r>
       <r>    11.2438     0.0000    96.0000 </r>
      </set>
     </set>
    </array>
   </total>
  </dos>
 </calculation>
 <structure name="finalpos" >
  <crystal>
   <varray name="basis" >
    <v>       7.58022417       0.00000000       0.00000000 </v>
    <v>       0.00000000       6.33347261       0.00000000 </v>
    <v>       0.00000000       0.00000000       6.01079077 </v>
   </varray>
   <i name="volume">    288.57290863 </i>
   <varray name="rec_basis" >
    <v>       0.13192222       0.00000000       0.00000000 </v>
    <v>       0.00000000       0.15789126       0.00000000 </v>
    <v>       0.00000000       0.00000000       0.16636746 </v>
   </varray>
  </crystal>
  <varray name="positions" >
   <v>       0.00000000       0.31938583       0.30041913 </v>
   <v>       0.50000000       0.68061417       0.80041913 </v>
   <v>       0.22019414       0.16879087       0.18917206 </v>
   <v>       0.27980586       0.83120913       0.68917206 </v>
   <v>       0.72019414       0.83120913       0.68917206 </v>
   <v>       0.77980586       0.16879087       0.18917206 </v>
   <v>       0.00000000       0.62139797       0.18562070 </v>
   <v>       0.50000000       0.37860203       0.68562070 </v>
   <v>       0.00000000       0.31198619       0.63949211 </v>
   <v>       0.50000000       0.68801381       0.13949211 </v>
   <v>       0.00000000       0.65731987       0.78738797 </v>
   <v>       0.50000000       0.34268013       0.28738797 </v>
   <v>       0.25585612       0.18649041       0.80097325 </v>
   <v>       0.24414388       0.81350959       0.30097325 </v>
   <v>       0.75585612       0.81350959       0.30097325 </v>
   <v>       0.74414388       0.18649041       0.80097325 </v>
  </varray>
 </structure>
</modeling>
