unknown system                          
           1
     7.667166    0.000000    0.000000
     0.000000    6.222204    0.000000
     0.000000    0.000000    6.032077
   P    S    Li
   2   8   6
Direct configuration=     1
   0.00000000  0.33100749  0.29843656
   0.50000000  0.66899251  0.79843656
   0.21818844  0.16949605  0.20260341
   0.28181156  0.83050395  0.70260341
   0.71818844  0.83050395  0.70260341
   0.78181156  0.16949605  0.20260341
   0.00000000  0.63135388  0.17483226
   0.50000000  0.36864612  0.67483226
   0.00000000  0.32347468  0.63779371
   0.50000000  0.67652532  0.13779371
   0.00000000  0.65853707  0.77238260
   0.50000000  0.34146293  0.27238260
   0.25235779  0.17972799  0.80227929
   0.24764221  0.82027201  0.30227929
   0.75235779  0.82027201  0.30227929
   0.74764221  0.17972799  0.80227929
unknown system                          
           1
     7.634842    0.000000    0.000000
     0.000000    6.303906    0.000000
     0.000000    0.000000    6.011403
   P    S    Li
   2   8   6
Direct configuration=     2
   0.00000000  0.32762109  0.30118679
   0.50000000  0.67237891  0.80118679
   0.21835655  0.17160129  0.19868544
   0.28164345  0.82839871  0.69868544
   0.71835655  0.82839871  0.69868544
   0.78164345  0.17160129  0.19868544
   0.00000000  0.63238297  0.17559937
   0.50000000  0.36761703  0.67559937
   0.00000000  0.32113761  0.63788649
   0.50000000  0.67886239  0.13788649
   0.00000000  0.66055738  0.77404673
   0.50000000  0.33944262  0.27404673
   0.25236136  0.18223810  0.80356012
   0.24763864  0.81776190  0.30356012
   0.75236136  0.81776190  0.30356012
   0.74763864  0.18223810  0.80356012
unknown system                          
           1
     7.630586    0.000000    0.000000
     0.000000    6.314665    0.000000
     0.000000    0.000000    6.008680
   P    S    Li
   2   8   6
Direct configuration=     3
   0.00000000  0.32718095  0.30155019
   0.50000000  0.67281905  0.80155019
   0.21837878  0.17187492  0.19816775
   0.28162122  0.82812508  0.69816775
   0.71837878  0.82812508  0.69816775
   0.78162122  0.17187492  0.19816775
   0.00000000  0.63251673  0.17570073
   0.50000000  0.36748327  0.67570073
   0.00000000  0.32083385  0.63789875
   0.50000000  0.67916615  0.13789875
   0.00000000  0.66081996  0.77426661
   0.50000000  0.33918004  0.27426661
   0.25236184  0.18256435  0.80372936
   0.24763816  0.81743565  0.30372936
   0.75236184  0.81743565  0.30372936
   0.74763816  0.18256435  0.80372936
unknown system                          
           1
     7.601392    0.000000    0.000000
     0.000000    6.335532    0.000000
     0.000000    0.000000    6.000923
   P    S    Li
   2   8   6
Direct configuration=     4
   0.00000000  0.32833119  0.30055616
   0.50000000  0.67166881  0.80055616
   0.21892857  0.17328294  0.19347952
   0.28107143  0.82671706  0.69347952
   0.71892857  0.82671706  0.69347952
   0.78107143  0.17328294  0.19347952
   0.00000000  0.62845875  0.17924138
   0.50000000  0.37154125  0.67924138
   0.00000000  0.31876845  0.64055181
   0.50000000  0.68123155  0.14055181
   0.00000000  0.66236560  0.77640894
   0.50000000  0.33763440  0.27640894
   0.25270309  0.18485165  0.80474660
   0.24729691  0.81514835  0.30474660
   0.75270309  0.81514835  0.30474660
   0.74729691  0.18485165  0.80474660
unknown system                          
           1
     7.594884    0.000000    0.000000
     0.000000    6.340184    0.000000
     0.000000    0.000000    5.999193
   P    S    Li
   2   8   6
Direct configuration=     5
   0.00000000  0.32858675  0.30033429
   0.50000000  0.67141325  0.80033429
   0.21905160  0.17359577  0.19243311
   0.28094840  0.82640423  0.69243311
   0.71905160  0.82640423  0.69243311
   0.78094840  0.17359577  0.19243311
   0.00000000  0.62755717  0.18003165
   0.50000000  0.37244283  0.68003165
   0.00000000  0.31830957  0.64114397
   0.50000000  0.68169043  0.14114397
   0.00000000  0.66270900  0.77688710
   0.50000000  0.33729100  0.27688710
   0.25277946  0.18535983  0.80497365
   0.24722054  0.81464017  0.30497365
   0.75277946  0.81464017  0.30497365
   0.74722054  0.18535983  0.80497365
unknown system                          
           1
     7.586827    0.000000    0.000000
     0.000000    6.331428    0.000000
     0.000000    0.000000    5.990249
   P    S    Li
   2   8   6
Direct configuration=     6
   0.00000000  0.32722209  0.30111581
   0.50000000  0.67277791  0.80111581
   0.21910173  0.17314326  0.19130020
   0.28089827  0.82685674  0.69130020
   0.71910173  0.82685674  0.69130020
   0.78089827  0.17314326  0.19130020
   0.00000000  0.62675257  0.18163778
   0.50000000  0.37324743  0.68163778
   0.00000000  0.31795471  0.64054419
   0.50000000  0.68204529  0.14054419
   0.00000000  0.66259003  0.77823217
   0.50000000  0.33740997  0.27823217
   0.25328141  0.18556567  0.80454008
   0.24671859  0.81443433  0.30454008
   0.75328141  0.81443433  0.30454008
   0.74671859  0.18556567  0.80454008
unknown system                          
           1
     7.577049    0.000000    0.000000
     0.000000    6.320801    0.000000
     0.000000    0.000000    5.979395
   P    S    Li
   2   8   6
Direct configuration=     7
   0.00000000  0.32556358  0.30206570
   0.50000000  0.67443642  0.80206570
   0.21916264  0.17259332  0.18992320
   0.28083736  0.82740668  0.68992320
   0.71916264  0.82740668  0.68992320
   0.78083736  0.17259332  0.18992320
   0.00000000  0.62577471  0.18358997
   0.50000000  0.37422529  0.68358997
   0.00000000  0.31752343  0.63981519
   0.50000000  0.68247657  0.13981519
   0.00000000  0.66244543  0.77986704
   0.50000000  0.33755457  0.27986704
   0.25389125  0.18581583  0.80401311
   0.24610875  0.81418417  0.30401311
   0.75389125  0.81418417  0.30401311
   0.74610875  0.18581583  0.80401311
unknown system                          
           1
     7.576338    0.000000    0.000000
     0.000000    6.318374    0.000000
     0.000000    0.000000    5.982432
   P    S    Li
   2   8   6
Direct configuration=     8
   0.00000000  0.32474653  0.30201688
   0.50000000  0.67525347  0.80201688
   0.21923348  0.17219267  0.18945144
   0.28076652  0.82780733  0.68945144
   0.71923348  0.82780733  0.68945144
   0.78076652  0.17219267  0.18945144
   0.00000000  0.62551898  0.18433783
   0.50000000  0.37448102  0.68433783
   0.00000000  0.31725482  0.63997118
   0.50000000  0.68274518  0.13997118
   0.00000000  0.66233963  0.78066305
   0.50000000  0.33766037  0.28066305
   0.25416544  0.18585077  0.80365934
   0.24583456  0.81414923  0.30365934
   0.75416544  0.81414923  0.30365934
   0.74583456  0.18585077  0.80365934
unknown system                          
           1
     7.574206    0.000000    0.000000
     0.000000    6.311092    0.000000
     0.000000    0.000000    5.991546
   P    S    Li
   2   8   6
Direct configuration=     9
   0.00000000  0.32229446  0.30187050
   0.50000000  0.67770554  0.80187050
   0.21944605  0.17099025  0.18803689
   0.28055395  0.82900975  0.68803689
   0.71944605  0.82900975  0.68803689
   0.78055395  0.17099025  0.18803689
   0.00000000  0.62475149  0.18658027
   0.50000000  0.37524851  0.68658027
   0.00000000  0.31644868  0.64043892
   0.50000000  0.68355132  0.14043892
   0.00000000  0.66202212  0.78304986
   0.50000000  0.33797788  0.28304986
   0.25498808  0.18595565  0.80259859
   0.24501192  0.81404435  0.30259859
   0.75498808  0.81404435  0.30259859
   0.74501192  0.18595565  0.80259859
unknown system                          
           1
     7.573168    0.000000    0.000000
     0.000000    6.307545    0.000000
     0.000000    0.000000    5.995984
   P    S    Li
   2   8   6
Direct configuration=    10
   0.00000000  0.32109893  0.30179932
   0.50000000  0.67890107  0.80179932
   0.21954959  0.17040400  0.18734905
   0.28045041  0.82959600  0.68734905
   0.71954959  0.82959600  0.68734905
   0.78045041  0.17040400  0.18734905
   0.00000000  0.62437730  0.18767067
   0.50000000  0.37562270  0.68767067
   0.00000000  0.31605564  0.64066637
   0.50000000  0.68394436  0.14066637
   0.00000000  0.66186731  0.78421047
   0.50000000  0.33813269  0.28421047
   0.25538882  0.18600679  0.80208279
   0.24461118  0.81399321  0.30208279
   0.75538882  0.81399321  0.30208279
   0.74461118  0.18600679  0.80208279
unknown system                          
           1
     7.579134    0.000000    0.000000
     0.000000    6.311780    0.000000
     0.000000    0.000000    6.000460
   P    S    Li
   2   8   6
Direct configuration=    11
   0.00000000  0.32135823  0.30148954
   0.50000000  0.67864177  0.80148954
   0.21958413  0.17020254  0.18767618
   0.28041587  0.82979746  0.68767618
   0.71958413  0.82979746  0.68767618
   0.78041587  0.17020254  0.18767618
   0.00000000  0.62432408  0.18732143
   0.50000000  0.37567592  0.68732143
   0.00000000  0.31571513  0.64076305
   0.50000000  0.68428487  0.14076305
   0.00000000  0.66181289  0.78442865
   0.50000000  0.33818711  0.28442865
   0.25530774  0.18593656  0.80192775
   0.24469226  0.81406344  0.30192775
   0.75530774  0.81406344  0.30192775
   0.74469226  0.18593656  0.80192775
unknown system                          
           1
     7.591462    0.000000    0.000000
     0.000000    6.320532    0.000000
     0.000000    0.000000    6.009711
   P    S    Li
   2   8   6
Direct configuration=    12
   0.00000000  0.32189373  0.30084986
   0.50000000  0.67810627  0.80084986
   0.21965543  0.16978650  0.18835169
   0.28034457  0.83021350  0.68835169
   0.71965543  0.83021350  0.68835169
   0.78034457  0.16978650  0.18835169
   0.00000000  0.62421419  0.18660025
   0.50000000  0.37578581  0.68660025
   0.00000000  0.31501194  0.64096270
   0.50000000  0.68498806  0.14096270
   0.00000000  0.66170050  0.78487917
   0.50000000  0.33829950  0.28487917
   0.25514033  0.18579155  0.80160758
   0.24485967  0.81420845  0.30160758
   0.75514033  0.81420845  0.30160758
   0.74485967  0.18579155  0.80160758
unknown system                          
           1
     7.593317    0.000000    0.000000
     0.000000    6.323175    0.000000
     0.000000    0.000000    6.007605
   P    S    Li
   2   8   6
Direct configuration=    13
   0.00000000  0.32177404  0.30081532
   0.50000000  0.67822596  0.80081532
   0.21948167  0.16964320  0.18890279
   0.28051833  0.83035680  0.68890279
   0.71948167  0.83035680  0.68890279
   0.78051833  0.16964320  0.18890279
   0.00000000  0.62401398  0.18610204
   0.50000000  0.37598602  0.68610204
   0.00000000  0.31449341  0.64042794
   0.50000000  0.68550659  0.14042794
   0.00000000  0.66146680  0.78531740
   0.50000000  0.33853320  0.28531740
   0.25504050  0.18570834  0.80137112
   0.24495950  0.81429166  0.30137112
   0.75504050  0.81429166  0.30137112
   0.74495950  0.18570834  0.80137112
unknown system                          
           1
     7.595610    0.000000    0.000000
     0.000000    6.326442    0.000000
     0.000000    0.000000    6.005002
   P    S    Li
   2   8   6
Direct configuration=    14
   0.00000000  0.32162613  0.30077260
   0.50000000  0.67837387  0.80077260
   0.21926691  0.16946612  0.18958433
   0.28073309  0.83053388  0.68958433
   0.71926691  0.83053388  0.68958433
   0.78073309  0.16946612  0.18958433
   0.00000000  0.62376659  0.18548590
   0.50000000  0.37623341  0.68548590
   0.00000000  0.31385264  0.63976661
   0.50000000  0.68614736  0.13976661
   0.00000000  0.66117801  0.78585937
   0.50000000  0.33882199  0.28585937
   0.25491712  0.18560552  0.80107869
   0.24508288  0.81439448  0.30107869
   0.75491712  0.81439448  0.30107869
   0.74508288  0.18560552  0.80107869
unknown system                          
           1
     7.595545    0.000000    0.000000
     0.000000    6.323561    0.000000
     0.000000    0.000000    6.004176
   P    S    Li
   2   8   6
Direct configuration=    15
   0.00000000  0.32139962  0.30067743
   0.50000000  0.67860038  0.80067743
   0.21929913  0.16946001  0.18959912
   0.28070087  0.83053999  0.68959912
   0.71929913  0.83053999  0.68959912
   0.78070087  0.16946001  0.18959912
   0.00000000  0.62341484  0.18541024
   0.50000000  0.37658516  0.68541024
   0.00000000  0.31376760  0.63977165
   0.50000000  0.68623240  0.13977165
   0.00000000  0.66081692  0.78605777
   0.50000000  0.33918308  0.28605777
   0.25495216  0.18564828  0.80104759
   0.24504784  0.81435172  0.30104759
   0.75495216  0.81435172  0.30104759
   0.74504784  0.18564828  0.80104759
unknown system                          
           1
     7.595350    0.000000    0.000000
     0.000000    6.314915    0.000000
     0.000000    0.000000    6.001699
   P    S    Li
   2   8   6
Direct configuration=    16
   0.00000000  0.32071979  0.30039189
   0.50000000  0.67928021  0.80039189
   0.21939577  0.16944166  0.18964348
   0.28060423  0.83055834  0.68964348
   0.71939577  0.83055834  0.68964348
   0.78060423  0.16944166  0.18964348
   0.00000000  0.62235912  0.18518322
   0.50000000  0.37764088  0.68518322
   0.00000000  0.31351238  0.63978679
   0.50000000  0.68648762  0.13978679
   0.00000000  0.65973315  0.78665306
   0.50000000  0.34026685  0.28665306
   0.25505727  0.18577663  0.80095429
   0.24494273  0.81422337  0.30095429
   0.75505727  0.81422337  0.30095429
   0.74494273  0.18577663  0.80095429
unknown system                          
           1
     7.595414    0.000000    0.000000
     0.000000    6.317758    0.000000
     0.000000    0.000000    6.002513
   P    S    Li
   2   8   6
Direct configuration=    17
   0.00000000  0.32094366  0.30048583
   0.50000000  0.67905634  0.80048583
   0.21936398  0.16944770  0.18962889
   0.28063602  0.83055230  0.68962889
   0.71936398  0.83055230  0.68962889
   0.78063602  0.16944770  0.18962889
   0.00000000  0.62270678  0.18525791
   0.50000000  0.37729322  0.68525791
   0.00000000  0.31359643  0.63978181
   0.50000000  0.68640357  0.13978181
   0.00000000  0.66009004  0.78645722
   0.50000000  0.33990996  0.28645722
   0.25502270  0.18573437  0.80098499
   0.24497730  0.81426563  0.30098499
   0.75502270  0.81426563  0.30098499
   0.74497730  0.18573437  0.80098499
unknown system                          
           1
     7.595897    0.000000    0.000000
     0.000000    6.317830    0.000000
     0.000000    0.000000    6.002790
   P    S    Li
   2   8   6
Direct configuration=    18
   0.00000000  0.32075447  0.30050000
   0.50000000  0.67924553  0.80050000
   0.21944307  0.16941693  0.18958316
   0.28055693  0.83058307  0.68958316
   0.71944307  0.83058307  0.68958316
   0.78055693  0.16941693  0.18958316
   0.00000000  0.62259631  0.18522065
   0.50000000  0.37740369  0.68522065
   0.00000000  0.31353342  0.63980210
   0.50000000  0.68646658  0.13980210
   0.00000000  0.65984500  0.78657158
   0.50000000  0.34015500  0.28657158
   0.25506229  0.18578504  0.80097494
   0.24493771  0.81421496  0.30097494
   0.75506229  0.81421496  0.30097494
   0.74493771  0.18578504  0.80097494
unknown system                          
           1
     7.597345    0.000000    0.000000
     0.000000    6.318043    0.000000
     0.000000    0.000000    6.003619
   P    S    Li
   2   8   6
Direct configuration=    19
   0.00000000  0.32018692  0.30054249
   0.50000000  0.67981308  0.80054249
   0.21968030  0.16932460  0.18944596
   0.28031970  0.83067540  0.68944596
   0.71968030  0.83067540  0.68944596
   0.78031970  0.16932460  0.18944596
   0.00000000  0.62226493  0.18510886
   0.50000000  0.37773507  0.68510886
   0.00000000  0.31334439  0.63986296
   0.50000000  0.68665561  0.13986296
   0.00000000  0.65910987  0.78691466
   0.50000000  0.34089013  0.28691466
   0.25518103  0.18593705  0.80094481
   0.24481897  0.81406295  0.30094481
   0.75518103  0.81406295  0.30094481
   0.74481897  0.18593705  0.80094481
unknown system                          
           1
     7.600240    0.000000    0.000000
     0.000000    6.318471    0.000000
     0.000000    0.000000    6.005278
   P    S    Li
   2   8   6
Direct configuration=    20
   0.00000000  0.31905184  0.30062745
   0.50000000  0.68094816  0.80062745
   0.22015467  0.16913996  0.18917162
   0.27984533  0.83086004  0.68917162
   0.72015467  0.83086004  0.68917162
   0.77984533  0.16913996  0.18917162
   0.00000000  0.62160218  0.18488532
   0.50000000  0.37839782  0.68488532
   0.00000000  0.31296633  0.63998466
   0.50000000  0.68703367  0.13998466
   0.00000000  0.65763965  0.78760073
   0.50000000  0.34236035  0.28760073
   0.25541848  0.18624108  0.80088456
   0.24458152  0.81375892  0.30088456
   0.75541848  0.81375892  0.30088456
   0.74458152  0.18624108  0.80088456
unknown system                          
           1
     7.594953    0.000000    0.000000
     0.000000    6.319905    0.000000
     0.000000    0.000000    6.005121
   P    S    Li
   2   8   6
Direct configuration=    21
   0.00000000  0.31926402  0.30055212
   0.50000000  0.68073598  0.80055212
   0.22009879  0.16908064  0.18920875
   0.27990121  0.83091936  0.68920875
   0.72009879  0.83091936  0.68920875
   0.77990121  0.16908064  0.18920875
   0.00000000  0.62153862  0.18507733
   0.50000000  0.37846138  0.68507733
   0.00000000  0.31277437  0.63985905
   0.50000000  0.68722563  0.13985905
   0.00000000  0.65763138  0.78757812
   0.50000000  0.34236862  0.28757812
   0.25548547  0.18631189  0.80086320
   0.24451453  0.81368811  0.30086320
   0.75548547  0.81368811  0.30086320
   0.74451453  0.18631189  0.80086320
unknown system                          
           1
     7.579431    0.000000    0.000000
     0.000000    6.324116    0.000000
     0.000000    0.000000    6.004659
   P    S    Li
   2   8   6
Direct configuration=    22
   0.00000000  0.31988685  0.30033095
   0.50000000  0.68011315  0.80033095
   0.21993460  0.16890649  0.18931779
   0.28006540  0.83109351  0.68931779
   0.71993460  0.83109351  0.68931779
   0.78006540  0.16890649  0.18931779
   0.00000000  0.62135203  0.18564105
   0.50000000  0.37864797  0.68564105
   0.00000000  0.31221091  0.63949025
   0.50000000  0.68778909  0.13949025
   0.00000000  0.65760708  0.78751174
   0.50000000  0.34239292  0.28751174
   0.25568228  0.18651976  0.80080048
   0.24431772  0.81348024  0.30080048
   0.75568228  0.81348024  0.30080048
   0.74431772  0.18651976  0.80080048
unknown system                          
           1
     7.585674    0.000000    0.000000
     0.000000    6.322422    0.000000
     0.000000    0.000000    6.004845
   P    S    Li
   2   8   6
Direct configuration=    23
   0.00000000  0.31963653  0.30041990
   0.50000000  0.68036347  0.80041990
   0.22000077  0.16897648  0.18927393
   0.27999923  0.83102352  0.68927393
   0.72000077  0.83102352  0.68927393
   0.77999923  0.16897648  0.18927393
   0.00000000  0.62142702  0.18541432
   0.50000000  0.37857298  0.68541432
   0.00000000  0.31243737  0.63963858
   0.50000000  0.68756263  0.13963858
   0.00000000  0.65761685  0.78753844
   0.50000000  0.34238315  0.28753844
   0.25560297  0.18643622  0.80082570
   0.24439703  0.81356378  0.30082570
   0.75560297  0.81356378  0.30082570
   0.74439703  0.18643622  0.80082570
unknown system                          
           1
     7.582213    0.000000    0.000000
     0.000000    6.328482    0.000000
     0.000000    0.000000    6.006806
   P    S    Li
   2   8   6
Direct configuration=    24
   0.00000000  0.31969805  0.30047332
   0.50000000  0.68030195  0.80047332
   0.22008449  0.16880131  0.18923040
   0.27991551  0.83119869  0.68923040
   0.72008449  0.83119869  0.68923040
   0.77991551  0.16880131  0.18923040
   0.00000000  0.62153262  0.18556814
   0.50000000  0.37846738  0.68556814
   0.00000000  0.31214839  0.63952432
   0.50000000  0.68785161  0.13952432
   0.00000000  0.65754743  0.78748429
   0.50000000  0.34245257  0.28748429
   0.25571956  0.18650892  0.80084983
   0.24428044  0.81349108  0.30084983
   0.75571956  0.81349108  0.30084983
   0.74428044  0.18650892  0.80084983
unknown system                          
           1
     7.581019    0.000000    0.000000
     0.000000    6.330574    0.000000
     0.000000    0.000000    6.007483
   P    S    Li
   2   8   6
Direct configuration=    25
   0.00000000  0.31971928  0.30049176
   0.50000000  0.68028072  0.80049176
   0.22011341  0.16874088  0.18921537
   0.27988659  0.83125912  0.68921537
   0.72011341  0.83125912  0.68921537
   0.77988659  0.16874088  0.18921537
   0.00000000  0.62156905  0.18562124
   0.50000000  0.37843095  0.68562124
   0.00000000  0.31204870  0.63948487
   0.50000000  0.68795130  0.13948487
   0.00000000  0.65752349  0.78746559
   0.50000000  0.34247651  0.28746559
   0.25575984  0.18653400  0.80085815
   0.24424016  0.81346600  0.30085815
   0.75575984  0.81346600  0.30085815
   0.74424016  0.18653400  0.80085815
unknown system                          
           1
     7.580538    0.000000    0.000000
     0.000000    6.332326    0.000000
     0.000000    0.000000    6.009482
   P    S    Li
   2   8   6
Direct configuration=    26
   0.00000000  0.31951773  0.30044786
   0.50000000  0.68048227  0.80044786
   0.22016220  0.16877110  0.18918919
   0.27983780  0.83122890  0.68918919
   0.72016220  0.83122890  0.68918919
   0.77983780  0.16877110  0.18918919
   0.00000000  0.62146564  0.18562092
   0.50000000  0.37853436  0.68562092
   0.00000000  0.31201092  0.63948924
   0.50000000  0.68798908  0.13948924
   0.00000000  0.65740041  0.78741867
   0.50000000  0.34259959  0.28741867
   0.25581802  0.18650765  0.80092772
   0.24418198  0.81349235  0.30092772
   0.75581802  0.81349235  0.30092772
   0.74418198  0.18650765  0.80092772
unknown system                          
           1
     7.580224    0.000000    0.000000
     0.000000    6.333473    0.000000
     0.000000    0.000000    6.010791
   P    S    Li
   2   8   6
Direct configuration=    27
   0.00000000  0.31938583  0.30041913
   0.50000000  0.68061417  0.80041913
   0.22019414  0.16879087  0.18917206
   0.27980586  0.83120913  0.68917206
   0.72019414  0.83120913  0.68917206
   0.77980586  0.16879087  0.18917206
   0.00000000  0.62139797  0.18562070
   0.50000000  0.37860203  0.68562070
   0.00000000  0.31198619  0.63949211
   0.50000000  0.68801381  0.13949211
   0.00000000  0.65731987  0.78738797
   0.50000000  0.34268013  0.28738797
   0.25585612  0.18649041  0.80097325
   0.24414388  0.81350959  0.30097325
   0.75585612  0.81350959  0.30097325
   0.74414388  0.18649041  0.80097325
