 running on   64 total cores
 distrk:  each k-point on   64 cores,    1 groups
 distr:  one band on   16 cores,    4 groups
 using from now: INCAR     
 vasp.5.4.4.18Apr17-6-g9f103f2a35 (build Feb 28 2020 14:15:47) complex          
  
 POSCAR found type information on POSCAR  P  S  Li
 POSCAR found :  3 types and      16 ions
 scaLAPACK will be used
 LDA part: xc-table for Ceperly-Alder, standard interpolation
 POSCAR, INCAR and KPOINTS ok, starting setup
 FFT: planning ...
 WAVECAR not read
 entering main loop
       N       E                     dE             d eps       ncg     rms          rms(c)
DAV:   1     0.513763919814E+03    0.51376E+03   -0.28228E+04   776   0.128E+03
DAV:   2     0.179488308237E+02   -0.49582E+03   -0.47484E+03   896   0.298E+02
DAV:   3    -0.542293274648E+02   -0.72178E+02   -0.70258E+02  1112   0.100E+02
DAV:   4    -0.615376099935E+02   -0.73083E+01   -0.71842E+01  1368   0.329E+01
DAV:   5    -0.627271375984E+02   -0.11895E+01   -0.11822E+01  1248   0.840E+00    0.354E+01
RMM:   6    -0.604589282476E+02    0.22682E+01   -0.72455E+00   890   0.623E+00    0.194E+01
RMM:   7    -0.602494053313E+02    0.20952E+00   -0.34918E+00   917   0.419E+00    0.965E+00
RMM:   8    -0.599481273323E+02    0.30128E+00   -0.84060E-01  1087   0.227E+00    0.177E+00
RMM:   9    -0.598965436077E+02    0.51584E-01   -0.27049E-01   956   0.136E+00    0.574E-01
RMM:  10    -0.598918925506E+02    0.46511E-02   -0.40178E-02  1142   0.550E-01    0.358E-01
RMM:  11    -0.598919977454E+02   -0.10519E-03   -0.13589E-02  1188   0.326E-01    0.137E-01
RMM:  12    -0.598924134324E+02   -0.41569E-03   -0.70290E-03  1150   0.232E-01    0.730E-02
RMM:  13    -0.598926425121E+02   -0.22908E-03   -0.33599E-03  1129   0.169E-01    0.309E-02
RMM:  14    -0.598928338251E+02   -0.19131E-03   -0.21257E-03  1021   0.135E-01    0.160E-02
RMM:  15    -0.598929399892E+02   -0.10616E-03   -0.11222E-03  1013   0.110E-01    0.642E-03
RMM:  16    -0.598930126342E+02   -0.72645E-04   -0.76586E-04   912   0.917E-02    0.554E-03
RMM:  17    -0.598930597829E+02   -0.47149E-04   -0.49587E-04   929   0.794E-02    0.336E-03
RMM:  18    -0.598930888537E+02   -0.29071E-04   -0.30971E-04   840   0.695E-02    0.382E-03
RMM:  19    -0.598931044623E+02   -0.15609E-04   -0.17995E-04   747   0.624E-02
   1 F= -.59893104E+02 E0= -.59893104E+02  d E =-.598931E+02
 curvature:   0.00 expect dE= 0.000E+00 dE for cont linesearch  0.000E+00
 trial: gam= 0.00000 g(F)=  0.346E+01 g(S)=  0.223E+01 ort = 0.000E+00 (trialstep = 0.100E+01)
 search vector abs. value=  0.570E+01
 bond charge predicted
       N       E                     dE             d eps       ncg     rms          rms(c)
DAV:   1    -0.638543687567E+02   -0.39613E+01   -0.44957E+02   768   0.930E+01    0.206E+01
RMM:   2    -0.624302948303E+02    0.14241E+01   -0.32366E+01  1001   0.214E+01    0.839E+00
RMM:   3    -0.630778314889E+02   -0.64754E+00   -0.12391E+01  1185   0.936E+00    0.674E+00
RMM:   4    -0.633519004924E+02   -0.27407E+00   -0.37453E+00  1061   0.498E+00    0.445E+00
RMM:   5    -0.632825843887E+02    0.69316E-01   -0.71813E-01  1080   0.273E+00    0.159E+00
RMM:   6    -0.632424865404E+02    0.40098E-01   -0.31884E-01  1119   0.172E+00    0.645E-01
RMM:   7    -0.632428839696E+02   -0.39743E-03   -0.68709E-02  1231   0.920E-01    0.347E-01
RMM:   8    -0.632438436445E+02   -0.95967E-03   -0.26970E-02  1208   0.614E-01    0.161E-01
RMM:   9    -0.632441791752E+02   -0.33553E-03   -0.14472E-02  1248   0.441E-01    0.474E-02
RMM:  10    -0.632452067664E+02   -0.10276E-02   -0.10374E-02  1255   0.347E-01    0.254E-02
RMM:  11    -0.632457878013E+02   -0.58103E-03   -0.56816E-03  1195   0.269E-01    0.218E-02
RMM:  12    -0.632461801544E+02   -0.39235E-03   -0.38262E-03  1167   0.221E-01    0.810E-03
RMM:  13    -0.632464412108E+02   -0.26106E-03   -0.26456E-03  1138   0.185E-01    0.691E-03
RMM:  14    -0.632466179492E+02   -0.17674E-03   -0.17965E-03  1119   0.155E-01    0.449E-03
RMM:  15    -0.632467457075E+02   -0.12776E-03   -0.12613E-03  1073   0.133E-01    0.193E-03
RMM:  16    -0.632468293533E+02   -0.83646E-04   -0.84606E-04  1014   0.113E-01    0.319E-03
RMM:  17    -0.632468886885E+02   -0.59335E-04   -0.61811E-04   991   0.998E-02    0.525E-03
RMM:  18    -0.632469272671E+02   -0.38579E-04   -0.41569E-04   897   0.887E-02    0.589E-03
RMM:  19    -0.632469545680E+02   -0.27301E-04   -0.30598E-04   882   0.811E-02    0.725E-03
RMM:  20    -0.632469723653E+02   -0.17797E-04   -0.20626E-04   801   0.748E-02    0.802E-03
RMM:  21    -0.632469848234E+02   -0.12458E-04   -0.15789E-04   801   0.708E-02
   2 F= -.63246985E+02 E0= -.63246985E+02  d E =-.335388E+01
 trial-energy change:   -3.353880  1 .order   -3.501528   -5.695777   -1.307280
 step:   1.4173(harm=  1.2979)  dis= 0.20926  next Energy=   -63.509000 (dE=-0.362E+01)
 bond charge predicted
       N       E                     dE             d eps       ncg     rms          rms(c)
DAV:   1    -0.639006865777E+02   -0.65371E+00   -0.80692E+01   768   0.390E+01    0.729E+00
RMM:   2    -0.635314638685E+02    0.36922E+00   -0.45846E+00   983   0.840E+00    0.252E+00
RMM:   3    -0.635511577391E+02   -0.19694E-01   -0.12233E+00  1213   0.328E+00    0.191E+00
RMM:   4    -0.635364552733E+02    0.14702E-01   -0.17125E-01  1136   0.142E+00    0.103E+00
RMM:   5    -0.635331097187E+02    0.33456E-02   -0.49310E-02  1152   0.830E-01    0.203E-01
RMM:   6    -0.635341082889E+02   -0.99857E-03   -0.16101E-02  1265   0.473E-01    0.124E-01
RMM:   7    -0.635348048207E+02   -0.69653E-03   -0.84375E-03  1240   0.316E-01    0.621E-02
RMM:   8    -0.635352253169E+02   -0.42050E-03   -0.42741E-03  1197   0.228E-01    0.150E-02
RMM:   9    -0.635354741233E+02   -0.24881E-03   -0.24914E-03  1146   0.175E-01    0.127E-02
RMM:  10    -0.635356357083E+02   -0.16159E-03   -0.16239E-03  1095   0.143E-01    0.727E-03
RMM:  11    -0.635357403648E+02   -0.10466E-03   -0.10731E-03  1060   0.119E-01    0.375E-03
RMM:  12    -0.635358070819E+02   -0.66717E-04   -0.68895E-04   979   0.101E-01    0.202E-03
RMM:  13    -0.635358511514E+02   -0.44070E-04   -0.48123E-04   934   0.886E-02    0.168E-03
RMM:  14    -0.635358795233E+02   -0.28372E-04   -0.30423E-04   856   0.792E-02    0.143E-03
RMM:  15    -0.635358984640E+02   -0.18941E-04   -0.22038E-04   817   0.730E-02    0.181E-03
RMM:  16    -0.635359105311E+02   -0.12067E-04   -0.14863E-04   771   0.686E-02
   3 F= -.63535911E+02 E0= -.63535911E+02  d E =-.364281E+01
 curvature:  -0.54 expect dE=-0.154E+01 dE for cont linesearch -0.175E-03
 trial: gam= 0.48906 g(F)=  0.152E+01 g(S)=  0.130E+01 ort = 0.428E-01 (trialstep = 0.108E+01)
 search vector abs. value=  0.423E+01
 bond charge predicted
       N       E                     dE             d eps       ncg     rms          rms(c)
DAV:   1    -0.645901275866E+02   -0.10542E+01   -0.41930E+02   768   0.879E+01    0.164E+01
RMM:   2    -0.658404506968E+02   -0.12503E+01   -0.26754E+01   926   0.197E+01    0.419E+00
RMM:   3    -0.661096989909E+02   -0.26925E+00   -0.66433E+00  1172   0.672E+00    0.326E+00
RMM:   4    -0.661575546644E+02   -0.47856E-01   -0.14767E+00  1040   0.323E+00    0.134E+00
RMM:   5    -0.661745292884E+02   -0.16975E-01   -0.28383E-01  1193   0.159E+00    0.604E-01
RMM:   6    -0.661766191161E+02   -0.20898E-02   -0.67039E-02  1166   0.829E-01    0.161E-01
RMM:   7    -0.661775890317E+02   -0.96992E-03   -0.16400E-02  1189   0.450E-01    0.714E-02
RMM:   8    -0.661784258427E+02   -0.83681E-03   -0.88536E-03  1209   0.299E-01    0.217E-02
RMM:   9    -0.661787920752E+02   -0.36623E-03   -0.34969E-03  1193   0.199E-01    0.137E-02
RMM:  10    -0.661789896169E+02   -0.19754E-03   -0.19824E-03  1096   0.149E-01    0.710E-03
RMM:  11    -0.661791093293E+02   -0.11971E-03   -0.11992E-03  1027   0.118E-01    0.663E-03
RMM:  12    -0.661791819410E+02   -0.72612E-04   -0.73798E-04   988   0.970E-02    0.299E-03
RMM:  13    -0.661792265087E+02   -0.44568E-04   -0.46162E-04   864   0.826E-02    0.160E-03
RMM:  14    -0.661792528435E+02   -0.26335E-04   -0.28600E-04   820   0.732E-02    0.769E-04
RMM:  15    -0.661792697107E+02   -0.16867E-04   -0.19720E-04   775   0.671E-02
   4 F= -.66179270E+02 E0= -.66179270E+02  d E =-.264336E+01
 trial-energy change:   -2.643359  1 .order   -2.569268   -3.087133   -2.051403
 step:   2.2242(harm=  3.2294)  dis= 0.28671  next Energy=   -67.345710 (dE=-0.381E+01)
 bond charge predicted
       N       E                     dE             d eps       ncg     rms          rms(c)
DAV:   1    -0.655583848036E+02    0.62087E+00   -0.46515E+02   768   0.935E+01    0.201E+01
RMM:   2    -0.669174145318E+02   -0.13590E+01   -0.32370E+01   934   0.216E+01    0.457E+00
RMM:   3    -0.671121630872E+02   -0.19475E+00   -0.72042E+00  1142   0.713E+00    0.361E+00
RMM:   4    -0.671527518311E+02   -0.40589E-01   -0.14701E+00  1038   0.340E+00    0.151E+00
RMM:   5    -0.671701706802E+02   -0.17419E-01   -0.30033E-01  1210   0.168E+00    0.638E-01
RMM:   6    -0.671721345966E+02   -0.19639E-02   -0.64293E-02  1178   0.833E-01    0.164E-01
RMM:   7    -0.671732511977E+02   -0.11166E-02   -0.18991E-02  1202   0.465E-01    0.694E-02
RMM:   8    -0.671740502264E+02   -0.79903E-03   -0.82616E-03  1218   0.291E-01    0.224E-02
RMM:   9    -0.671744281976E+02   -0.37797E-03   -0.35211E-03  1142   0.192E-01    0.126E-02
RMM:  10    -0.671746116412E+02   -0.18344E-03   -0.17457E-03  1113   0.138E-01    0.849E-03
RMM:  11    -0.671747143251E+02   -0.10268E-03   -0.10262E-03  1017   0.106E-01    0.587E-03
RMM:  12    -0.671747656228E+02   -0.51298E-04   -0.51332E-04   917   0.840E-02    0.277E-03
RMM:  13    -0.671747965918E+02   -0.30969E-04   -0.33072E-04   851   0.714E-02    0.121E-03
RMM:  14    -0.671748098377E+02   -0.13246E-04   -0.15470E-04   743   0.624E-02
   5 F= -.67174810E+02 E0= -.67174810E+02  d E =-.363890E+01
 curvature:  -1.87 expect dE=-0.399E+01 dE for cont linesearch -0.339E-01
 trial: gam= 0.98111 g(F)=  0.187E+01 g(S)=  0.264E+00 ort =-0.277E+00 (trialstep = 0.980E+00)
 search vector abs. value=  0.566E+01
 bond charge predicted
       N       E                     dE             d eps       ncg     rms          rms(c)
DAV:   1    -0.638676304334E+02    0.33072E+01   -0.46668E+02   768   0.960E+01    0.264E+01
RMM:   2    -0.668301436798E+02   -0.29625E+01   -0.35346E+01   966   0.229E+01    0.744E+00
RMM:   3    -0.674113574868E+02   -0.58121E+00   -0.82615E+00  1218   0.759E+00    0.787E+00
RMM:   4    -0.675010452144E+02   -0.89688E-01   -0.18401E+00  1066   0.384E+00    0.301E+00
RMM:   5    -0.675346234391E+02   -0.33578E-01   -0.39404E-01  1246   0.191E+00    0.835E-01
RMM:   6    -0.675400784092E+02   -0.54550E-02   -0.99489E-02  1200   0.104E+00    0.211E-01
RMM:   7    -0.675424307392E+02   -0.23523E-02   -0.34050E-02  1208   0.627E-01    0.165E-01
RMM:   8    -0.675438002975E+02   -0.13696E-02   -0.15034E-02  1222   0.407E-01    0.602E-02
RMM:   9    -0.675445210288E+02   -0.72073E-03   -0.74632E-03  1206   0.278E-01    0.450E-02
RMM:  10    -0.675449124209E+02   -0.39139E-03   -0.39262E-03  1117   0.193E-01    0.166E-02
RMM:  11    -0.675451054422E+02   -0.19302E-03   -0.18955E-03  1056   0.140E-01    0.137E-02
RMM:  12    -0.675452076152E+02   -0.10217E-03   -0.10649E-03   991   0.107E-01    0.136E-02
RMM:  13    -0.675452646603E+02   -0.57045E-04   -0.59557E-04   908   0.860E-02    0.659E-03
RMM:  14    -0.675452920616E+02   -0.27401E-04   -0.29366E-04   828   0.702E-02    0.604E-03
RMM:  15    -0.675453058805E+02   -0.13819E-04   -0.16583E-04   746   0.612E-02
   6 F= -.67545306E+02 E0= -.67545306E+02  d E =-.370496E+00
 trial-energy change:   -0.370496  1 .order   -0.509393   -1.823184    0.804398
 step:   0.6070(harm=  0.6803)  dis= 0.12440  next Energy=   -67.706194 (dE=-0.531E+00)
 bond charge predicted
       N       E                     dE             d eps       ncg     rms          rms(c)
DAV:   1    -0.673726432678E+02    0.17265E+00   -0.72745E+01   768   0.369E+01    0.577E+00
RMM:   2    -0.676761738626E+02   -0.30353E+00   -0.34253E+00   944   0.783E+00    0.130E+00
RMM:   3    -0.677013164329E+02   -0.25143E-01   -0.59557E-01  1228   0.250E+00    0.110E+00
RMM:   4    -0.676994683864E+02    0.18480E-02   -0.10542E-01  1119   0.105E+00    0.438E-01
RMM:   5    -0.677009236504E+02   -0.14553E-02   -0.23710E-02  1247   0.520E-01    0.159E-01
RMM:   6    -0.677014821776E+02   -0.55853E-03   -0.86892E-03  1215   0.302E-01    0.334E-02
RMM:   7    -0.677018199140E+02   -0.33774E-03   -0.37936E-03  1207   0.197E-01    0.238E-02
RMM:   8    -0.677020020405E+02   -0.18213E-03   -0.18871E-03  1112   0.136E-01    0.100E-02
RMM:   9    -0.677020945547E+02   -0.92514E-04   -0.96386E-04  1011   0.100E-01    0.546E-03
RMM:  10    -0.677021441025E+02   -0.49548E-04   -0.50449E-04   908   0.770E-02    0.367E-03
RMM:  11    -0.677021627977E+02   -0.18695E-04   -0.19198E-04   748   0.619E-02
   7 F= -.67702163E+02 E0= -.67702163E+02  d E =-.527353E+00
 curvature:  -0.97 expect dE=-0.170E+01 dE for cont linesearch -0.884E-04
 trial: gam= 0.45895 g(F)=  0.158E+01 g(S)=  0.163E+00 ort = 0.227E-01 (trialstep = 0.906E+00)
 search vector abs. value=  0.296E+01
 bond charge predicted
       N       E                     dE             d eps       ncg     rms          rms(c)
DAV:   1    -0.675628656373E+02    0.13928E+00   -0.18987E+02   768   0.656E+01    0.906E+00
RMM:   2    -0.684462558146E+02   -0.88339E+00   -0.10656E+01   992   0.138E+01    0.372E+00
RMM:   3    -0.686019599818E+02   -0.15570E+00   -0.25103E+00  1251   0.511E+00    0.393E+00
RMM:   4    -0.686056893906E+02   -0.37294E-02   -0.40768E-01  1191   0.218E+00    0.215E+00
RMM:   5    -0.686060290797E+02   -0.33969E-03   -0.10470E-01  1140   0.124E+00    0.377E-01
RMM:   6    -0.686077216219E+02   -0.16925E-02   -0.35682E-02  1259   0.690E-01    0.249E-01
RMM:   7    -0.686088648181E+02   -0.11432E-02   -0.15764E-02  1249   0.444E-01    0.913E-02
RMM:   8    -0.686094822908E+02   -0.61747E-03   -0.70845E-03  1272   0.305E-01    0.689E-02
RMM:   9    -0.686098405618E+02   -0.35827E-03   -0.40012E-03  1215   0.221E-01    0.441E-02
RMM:  10    -0.686100474958E+02   -0.20693E-03   -0.23043E-03  1165   0.165E-01    0.149E-02
RMM:  11    -0.686101849997E+02   -0.13750E-03   -0.14051E-03  1040   0.126E-01    0.150E-02
RMM:  12    -0.686102570540E+02   -0.72054E-04   -0.71832E-04   911   0.977E-02    0.167E-02
RMM:  13    -0.686102993105E+02   -0.42256E-04   -0.44304E-04   885   0.816E-02    0.262E-02
RMM:  14    -0.686103177410E+02   -0.18431E-04   -0.24139E-04   813   0.711E-02    0.211E-03
RMM:  15    -0.686103344638E+02   -0.16723E-04   -0.20141E-04   861   0.637E-02    0.151E-03
RMM:  16    -0.686103388228E+02   -0.43591E-05   -0.66648E-05   635   0.562E-02
   8 F= -.68610339E+02 E0= -.68610339E+02  d E =-.908176E+00
 trial-energy change:   -0.908176  1 .order   -0.932929   -1.588251   -0.277606
 step:   1.1292(harm=  1.0976)  dis= 0.10472  next Energy=   -68.644203 (dE=-0.942E+00)
 bond charge predicted
       N       E                     dE             d eps       ncg     rms          rms(c)
DAV:   1    -0.686005529559E+02    0.97815E-02   -0.11948E+01   896   0.162E+01    0.216E+00
RMM:   2    -0.686452830042E+02   -0.44730E-01   -0.53197E-01   987   0.321E+00    0.627E-01
RMM:   3    -0.686447004581E+02    0.58255E-03   -0.66229E-02  1257   0.103E+00    0.525E-01
RMM:   4    -0.686440649655E+02    0.63549E-03   -0.15776E-02  1197   0.437E-01    0.172E-01
RMM:   5    -0.686444143285E+02   -0.34936E-03   -0.52932E-03  1255   0.253E-01    0.514E-02
RMM:   6    -0.686446313335E+02   -0.21701E-03   -0.25705E-03  1245   0.171E-01    0.219E-02
RMM:   7    -0.686447524362E+02   -0.12110E-03   -0.12393E-03  1078   0.119E-01    0.130E-02
RMM:   8    -0.686448123033E+02   -0.59867E-04   -0.61837E-04  1021   0.900E-02    0.584E-03
RMM:   9    -0.686448383958E+02   -0.26092E-04   -0.28694E-04   849   0.717E-02    0.253E-03
RMM:  10    -0.686448513761E+02   -0.12980E-04   -0.15659E-04   766   0.625E-02
   9 F= -.68644851E+02 E0= -.68644851E+02  d E =-.942689E+00
 curvature:  -0.90 expect dE=-0.830E+00 dE for cont linesearch -0.182E-06
 trial: gam= 0.53577 g(F)=  0.517E+00 g(S)=  0.405E+00 ort =-0.772E-03 (trialstep = 0.950E+00)
 search vector abs. value=  0.177E+01
 bond charge predicted
       N       E                     dE             d eps       ncg     rms          rms(c)
DAV:   1    -0.693356297670E+02   -0.69079E+00   -0.11952E+02   768   0.507E+01    0.950E+00
RMM:   2    -0.693406923345E+02   -0.50626E-02   -0.63344E+00   958   0.105E+01    0.221E+00
RMM:   3    -0.692421160152E+02    0.98576E-01   -0.84423E-01  1188   0.343E+00    0.156E+00
RMM:   4    -0.692352540410E+02    0.68620E-02   -0.17973E-01  1197   0.145E+00    0.679E-01
RMM:   5    -0.692379716159E+02   -0.27176E-02   -0.51438E-02  1210   0.773E-01    0.344E-01
RMM:   6    -0.692398391848E+02   -0.18676E-02   -0.22873E-02  1256   0.495E-01    0.107E-01
RMM:   7    -0.692408369042E+02   -0.99772E-03   -0.10370E-02  1217   0.315E-01    0.590E-02
RMM:   8    -0.692413413821E+02   -0.50448E-03   -0.50783E-03  1157   0.214E-01    0.192E-02
RMM:   9    -0.692415930998E+02   -0.25172E-03   -0.25806E-03  1118   0.153E-01    0.115E-02
RMM:  10    -0.692417264290E+02   -0.13333E-03   -0.13789E-03  1030   0.113E-01    0.826E-03
RMM:  11    -0.692417934540E+02   -0.67025E-04   -0.68104E-04   913   0.856E-02    0.416E-03
RMM:  12    -0.692418249237E+02   -0.31470E-04   -0.32470E-04   789   0.689E-02    0.244E-03
RMM:  13    -0.692418394860E+02   -0.14562E-04   -0.16789E-04   720   0.594E-02
  10 F= -.69241839E+02 E0= -.69241839E+02  d E =-.596988E+00
 trial-energy change:   -0.596988  1 .order   -0.569861   -0.875827   -0.263895
 step:   1.2539(harm=  1.3603)  dis= 0.09467  next Energy=   -69.284844 (dE=-0.640E+00)
 bond charge predicted
       N       E                     dE             d eps       ncg     rms          rms(c)
DAV:   1    -0.692927063805E+02   -0.50881E-01   -0.12412E+01   848   0.165E+01    0.267E+00
RMM:   2    -0.692958178341E+02   -0.31115E-02   -0.62748E-01   962   0.334E+00    0.778E-01
RMM:   3    -0.692835750123E+02    0.12243E-01   -0.80025E-02  1181   0.110E+00    0.479E-01
RMM:   4    -0.692826692772E+02    0.90574E-03   -0.18185E-02  1195   0.442E-01    0.193E-01
RMM:   5    -0.692830441091E+02   -0.37483E-03   -0.63923E-03  1247   0.260E-01    0.802E-02
RMM:   6    -0.692832914866E+02   -0.24738E-03   -0.27972E-03  1165   0.163E-01    0.350E-02
RMM:   7    -0.692834205051E+02   -0.12902E-03   -0.13129E-03  1081   0.112E-01    0.145E-02
RMM:   8    -0.692834787681E+02   -0.58263E-04   -0.59137E-04   931   0.813E-02    0.590E-03
RMM:   9    -0.692834999550E+02   -0.21187E-04   -0.23005E-04   756   0.635E-02    0.274E-03
RMM:  10    -0.692835081721E+02   -0.82171E-05   -0.10743E-04   678   0.558E-02
  11 F= -.69283508E+02 E0= -.69283508E+02  d E =-.638657E+00
 curvature:  -1.22 expect dE=-0.109E+01 dE for cont linesearch -0.115E-03
 trial: gam= 0.73580 g(F)=  0.874E+00 g(S)=  0.250E-01 ort =-0.129E-01 (trialstep = 0.974E+00)
 search vector abs. value=  0.184E+01
 bond charge predicted
       N       E                     dE             d eps       ncg     rms          rms(c)
DAV:   1    -0.697945333893E+02   -0.51103E+00   -0.12796E+02   768   0.513E+01    0.109E+01
RMM:   2    -0.700565496078E+02   -0.26202E+00   -0.78437E+00   956   0.113E+01    0.265E+00
RMM:   3    -0.699515511649E+02    0.10500E+00   -0.81877E-01  1235   0.345E+00    0.297E+00
RMM:   4    -0.699331412675E+02    0.18410E-01   -0.18786E-01  1143   0.143E+00    0.111E+00
RMM:   5    -0.699369351927E+02   -0.37939E-02   -0.70342E-02  1198   0.844E-01    0.284E-01
RMM:   6    -0.699381689307E+02   -0.12337E-02   -0.33974E-02  1206   0.564E-01    0.176E-01
RMM:   7    -0.699391528111E+02   -0.98388E-03   -0.13009E-02  1208   0.343E-01    0.669E-02
RMM:   8    -0.699397654759E+02   -0.61266E-03   -0.61652E-03  1134   0.228E-01    0.241E-02
RMM:   9    -0.699400224895E+02   -0.25701E-03   -0.27450E-03  1144   0.155E-01    0.156E-02
RMM:  10    -0.699401498055E+02   -0.12732E-03   -0.13203E-03  1047   0.108E-01    0.954E-03
RMM:  11    -0.699402030664E+02   -0.53261E-04   -0.53491E-04   900   0.776E-02    0.507E-03
RMM:  12    -0.699402216180E+02   -0.18552E-04   -0.20359E-04   735   0.612E-02    0.249E-03
RMM:  13    -0.699402279025E+02   -0.62845E-05   -0.89007E-05   665   0.540E-02
  12 F= -.69940228E+02 E0= -.69940228E+02  d E =-.656720E+00
 trial-energy change:   -0.656720  1 .order   -0.650596   -0.865849   -0.435342
 step:   1.8225(harm=  1.9582)  dis= 0.17930  next Energy=   -70.134080 (dE=-0.851E+00)
 bond charge predicted
       N       E                     dE             d eps       ncg     rms          rms(c)
DAV:   1    -0.700053903129E+02   -0.65169E-01   -0.99019E+01   768   0.456E+01    0.918E+00
RMM:   2    -0.702032945477E+02   -0.19790E+00   -0.58590E+00   954   0.993E+00    0.227E+00
RMM:   3    -0.701227619678E+02    0.80533E-01   -0.60823E-01  1233   0.300E+00    0.232E+00
RMM:   4    -0.701080720075E+02    0.14690E-01   -0.15315E-01  1131   0.126E+00    0.789E-01
RMM:   5    -0.701115692870E+02   -0.34973E-02   -0.53809E-02  1231   0.729E-01    0.279E-01
RMM:   6    -0.701128890190E+02   -0.13197E-02   -0.27329E-02  1204   0.486E-01    0.149E-01
RMM:   7    -0.701135688587E+02   -0.67984E-03   -0.10590E-02  1185   0.307E-01    0.571E-02
RMM:   8    -0.701140443488E+02   -0.47549E-03   -0.50229E-03  1137   0.207E-01    0.216E-02
RMM:   9    -0.701142592587E+02   -0.21491E-03   -0.23689E-03  1111   0.144E-01    0.139E-02
RMM:  10    -0.701143695816E+02   -0.11032E-03   -0.11426E-03  1039   0.100E-01    0.102E-02
RMM:  11    -0.701144133972E+02   -0.43816E-04   -0.44145E-04   874   0.720E-02    0.613E-03
RMM:  12    -0.701144247048E+02   -0.11308E-04   -0.13859E-04   681   0.575E-02
  13 F= -.70114425E+02 E0= -.70114425E+02  d E =-.830917E+00
 curvature:  -1.99 expect dE=-0.276E+01 dE for cont linesearch -0.135E-02
 trial: gam= 1.48822 g(F)=  0.891E+00 g(S)=  0.497E+00 ort =-0.353E-01 (trialstep = 0.393E+00)
 search vector abs. value=  0.535E+01
 bond charge predicted
       N       E                     dE             d eps       ncg     rms          rms(c)
DAV:   1    -0.702792029335E+02   -0.16479E+00   -0.58819E+01   768   0.342E+01    0.590E+00
RMM:   2    -0.705657855955E+02   -0.28658E+00   -0.33569E+00   969   0.740E+00    0.214E+00
RMM:   3    -0.705508813271E+02    0.14904E-01   -0.35768E-01  1253   0.228E+00    0.252E+00
RMM:   4    -0.705460261145E+02    0.48552E-02   -0.75310E-02  1213   0.890E-01    0.143E+00
RMM:   5    -0.705471359582E+02   -0.11098E-02   -0.32168E-02  1187   0.546E-01    0.253E-01
RMM:   6    -0.705478138681E+02   -0.67791E-03   -0.10524E-02  1253   0.323E-01    0.169E-01
RMM:   7    -0.705481676560E+02   -0.35379E-03   -0.50627E-03  1196   0.217E-01    0.747E-02
RMM:   8    -0.705483942569E+02   -0.22660E-03   -0.23660E-03  1121   0.149E-01    0.703E-02
RMM:   9    -0.705485243365E+02   -0.13008E-03   -0.11437E-03  1077   0.107E-01    0.919E-02
RMM:  10    -0.705485373106E+02   -0.12974E-04   -0.71863E-04  1076   0.889E-02    0.117E-02
RMM:  11    -0.705485505540E+02   -0.13243E-04   -0.18362E-04   706   0.618E-02
  14 F= -.70548551E+02 E0= -.70548551E+02  d E =-.434126E+00
 trial-energy change:   -0.434126  1 .order   -0.433513   -0.524213   -0.342812
 step:   1.1344(harm=  1.1344)  dis= 0.19294  next Energy=   -70.871861 (dE=-0.757E+00)
 bond charge predicted
       N       E                     dE             d eps       ncg     rms          rms(c)
DAV:   1    -0.697997409459E+02    0.74880E+00   -0.20690E+02   768   0.644E+01    0.179E+01
RMM:   2    -0.709277581035E+02   -0.11280E+01   -0.13195E+01   965   0.145E+01    0.631E+00
RMM:   3    -0.708945740517E+02    0.33184E-01   -0.15098E+00  1256   0.456E+00    0.691E+00
RMM:   4    -0.708764771817E+02    0.18097E-01   -0.28931E-01  1219   0.183E+00    0.435E+00
RMM:   5    -0.708777474225E+02   -0.12702E-02   -0.11759E-01  1191   0.109E+00    0.124E+00
RMM:   6    -0.708806640349E+02   -0.29166E-02   -0.37958E-02  1252   0.647E-01    0.332E-01
RMM:   7    -0.708816441188E+02   -0.98008E-03   -0.18971E-02  1253   0.452E-01    0.130E-01
RMM:   8    -0.708826177201E+02   -0.97360E-03   -0.10613E-02  1219   0.321E-01    0.117E-01
RMM:   9    -0.708831933668E+02   -0.57565E-03   -0.55110E-03  1161   0.233E-01    0.151E-01
RMM:  10    -0.708834009250E+02   -0.20756E-03   -0.29730E-03  1161   0.179E-01    0.418E-02
RMM:  11    -0.708835487241E+02   -0.14780E-03   -0.18102E-03  1157   0.136E-01    0.183E-02
RMM:  12    -0.708836380037E+02   -0.89280E-04   -0.91827E-04   973   0.102E-01    0.160E-02
RMM:  13    -0.708836878081E+02   -0.49804E-04   -0.50579E-04   824   0.819E-02    0.177E-02
RMM:  14    -0.708837080177E+02   -0.20210E-04   -0.24611E-04   796   0.702E-02    0.148E-02
RMM:  15    -0.708837188724E+02   -0.10855E-04   -0.16000E-04   723   0.640E-02
  15 F= -.70883719E+02 E0= -.70883719E+02  d E =-.769294E+00
 curvature:  -2.27 expect dE=-0.114E+01 dE for cont linesearch -0.937E-03
 trial: gam= 0.20433 g(F)=  0.332E+00 g(S)=  0.169E+00 ort = 0.470E-01 (trialstep = 0.541E+00)
 search vector abs. value=  0.744E+00
 bond charge predicted
       N       E                     dE             d eps       ncg     rms          rms(c)
DAV:   1    -0.711210787938E+02   -0.23737E+00   -0.17393E+01   832   0.202E+01    0.291E+00
RMM:   2    -0.711526981210E+02   -0.31619E-01   -0.85146E-01   962   0.390E+00    0.836E-01
RMM:   3    -0.711377750517E+02    0.14923E-01   -0.10231E-01  1210   0.126E+00    0.680E-01
RMM:   4    -0.711351609479E+02    0.26141E-02   -0.30745E-02  1122   0.549E-01    0.241E-01
RMM:   5    -0.711357489241E+02   -0.58798E-03   -0.10345E-02  1253   0.322E-01    0.119E-01
RMM:   6    -0.711360804539E+02   -0.33153E-03   -0.44763E-03  1185   0.201E-01    0.362E-02
RMM:   7    -0.711362541097E+02   -0.17366E-03   -0.20391E-03  1102   0.140E-01    0.233E-02
RMM:   8    -0.711363506836E+02   -0.96574E-04   -0.10654E-03  1060   0.102E-01    0.538E-03
RMM:   9    -0.711363995713E+02   -0.48888E-04   -0.53382E-04   940   0.764E-02    0.327E-03
RMM:  10    -0.711364226619E+02   -0.23091E-04   -0.25488E-04   788   0.607E-02    0.239E-03
RMM:  11    -0.711364286505E+02   -0.59886E-05   -0.82751E-05   649   0.522E-02
  16 F= -.71136429E+02 E0= -.71136429E+02  d E =-.252710E+00
 ZBRENT: can't locate minimum, use default step
 trial-energy change:   -0.252710  1 .order   -0.252996   -0.276250   -0.229741
 step:   2.1637(harm=  3.2129)  dis= 0.09953  next Energy=   -71.704139 (dE=-0.820E+00)
 bond charge predicted
       N       E                     dE             d eps       ncg     rms          rms(c)
DAV:   1    -0.714289670977E+02   -0.29254E+00   -0.15614E+02   768   0.609E+01    0.111E+01
RMM:   2    -0.717103122078E+02   -0.28135E+00   -0.80412E+00   961   0.120E+01    0.282E+00
RMM:   3    -0.716125242561E+02    0.97788E-01   -0.11269E+00  1200   0.398E+00    0.268E+00
RMM:   4    -0.715893483327E+02    0.23176E-01   -0.32481E-01  1162   0.192E+00    0.906E-01
RMM:   5    -0.715946644966E+02   -0.53162E-02   -0.95598E-02  1262   0.105E+00    0.385E-01
RMM:   6    -0.715974171141E+02   -0.27526E-02   -0.41676E-02  1258   0.663E-01    0.979E-02
RMM:   7    -0.715988272355E+02   -0.14101E-02   -0.17675E-02  1229   0.434E-01    0.602E-02
RMM:   8    -0.715996943260E+02   -0.86709E-03   -0.93866E-03  1237   0.310E-01    0.184E-02
RMM:   9    -0.716001417152E+02   -0.44739E-03   -0.48457E-03  1195   0.222E-01    0.121E-02
RMM:  10    -0.716004280105E+02   -0.28630E-03   -0.29993E-03  1140   0.166E-01    0.109E-02
RMM:  11    -0.716005612973E+02   -0.13329E-03   -0.13560E-03  1093   0.122E-01    0.101E-02
RMM:  12    -0.716006285753E+02   -0.67278E-04   -0.72297E-04  1031   0.946E-02    0.466E-03
RMM:  13    -0.716006669429E+02   -0.38368E-04   -0.42021E-04   940   0.769E-02    0.495E-03
RMM:  14    -0.716006824562E+02   -0.15513E-04   -0.18424E-04   803   0.648E-02
  17 F= -.71600682E+02 E0= -.71600682E+02  d E =-.716964E+00
 curvature:  -1.98 expect dE=-0.658E+00 dE for cont linesearch -0.536E-01
 ZBRENT: increasing intervall
 opt :   5.4091  next Energy=   -71.143619 (dE=-0.260E+00)
 bond charge predicted
       N       E                     dE             d eps       ncg     rms          rms(c)
DAV:   1    -0.695742456513E+02    0.20264E+01   -0.60405E+02   768   0.122E+02    0.335E+01
RMM:   2    -0.710486059072E+02   -0.14744E+01   -0.38525E+01   972   0.256E+01    0.810E+00
RMM:   3    -0.709902967672E+02    0.58309E-01   -0.69300E+00  1199   0.893E+00    0.887E+00
RMM:   4    -0.709405174259E+02    0.49779E-01   -0.19923E+00  1149   0.473E+00    0.275E+00
RMM:   5    -0.709662494637E+02   -0.25732E-01   -0.47983E-01  1246   0.251E+00    0.755E-01
RMM:   6    -0.709765525848E+02   -0.10303E-01   -0.19518E-01  1257   0.157E+00    0.285E-01
RMM:   7    -0.709820633260E+02   -0.55107E-02   -0.73040E-02  1275   0.975E-01    0.144E-01
RMM:   8    -0.709856855716E+02   -0.36222E-02   -0.39645E-02  1295   0.681E-01    0.534E-02
RMM:   9    -0.709873803265E+02   -0.16948E-02   -0.18354E-02  1264   0.472E-01    0.301E-02
RMM:  10    -0.709886168285E+02   -0.12365E-02   -0.13058E-02  1254   0.356E-01    0.208E-02
RMM:  11    -0.709891385341E+02   -0.52171E-03   -0.54609E-03  1227   0.258E-01    0.981E-03
RMM:  12    -0.709894976032E+02   -0.35907E-03   -0.37969E-03  1207   0.199E-01    0.111E-02
RMM:  13    -0.709896853324E+02   -0.18773E-03   -0.19882E-03  1186   0.154E-01    0.464E-03
RMM:  14    -0.709898103246E+02   -0.12499E-03   -0.13156E-03  1113   0.121E-01    0.328E-03
RMM:  15    -0.709898777306E+02   -0.67406E-04   -0.71326E-04  1012   0.956E-02    0.425E-03
RMM:  16    -0.709899115842E+02   -0.33854E-04   -0.37318E-04   883   0.784E-02    0.166E-03
RMM:  17    -0.709899291401E+02   -0.17556E-04   -0.21148E-04   781   0.689E-02    0.275E-03
RMM:  18    -0.709899361197E+02   -0.69796E-05   -0.10824E-04   738   0.633E-02
  18 F= -.70989936E+02 E0= -.70989936E+02  d E =-.106217E+00
 curvature:  16.87 expect dE= 0.603E+02 dE for cont linesearch  0.620E+01
 ZBRENT: bracketing found
 ZBRENT: interpolating
 opt :   2.8569  next Energy=   -71.649882 (dE=-0.766E+00)
 bond charge predicted
       N       E                     dE             d eps       ncg     rms          rms(c)
DAV:   1    -0.705572504557E+02    0.43268E+00   -0.35706E+02   768   0.937E+01    0.176E+01
RMM:   2    -0.717602083376E+02   -0.12030E+01   -0.25564E+01   964   0.205E+01    0.546E+00
RMM:   3    -0.716487316923E+02    0.11148E+00   -0.57671E+00  1225   0.792E+00    0.511E+00
RMM:   4    -0.716049736848E+02    0.43758E-01   -0.15004E+00  1135   0.408E+00    0.160E+00
RMM:   5    -0.716201173396E+02   -0.15144E-01   -0.37643E-01  1232   0.218E+00    0.538E-01
RMM:   6    -0.716283042133E+02   -0.81869E-02   -0.13939E-01  1264   0.128E+00    0.205E-01
RMM:   7    -0.716323561144E+02   -0.40519E-02   -0.53881E-02  1272   0.807E-01    0.125E-01
RMM:   8    -0.716350521595E+02   -0.26960E-02   -0.29327E-02  1303   0.553E-01    0.449E-02
RMM:   9    -0.716362589121E+02   -0.12068E-02   -0.12911E-02  1256   0.380E-01    0.280E-02
RMM:  10    -0.716369717382E+02   -0.71283E-03   -0.76712E-03  1204   0.278E-01    0.160E-02
RMM:  11    -0.716373417248E+02   -0.36999E-03   -0.39206E-03  1184   0.210E-01    0.140E-02
RMM:  12    -0.716375686230E+02   -0.22690E-03   -0.24439E-03  1165   0.161E-01    0.670E-03
RMM:  13    -0.716377048615E+02   -0.13624E-03   -0.14265E-03  1095   0.125E-01    0.562E-03
RMM:  14    -0.716377770239E+02   -0.72162E-04   -0.75622E-04  1007   0.965E-02    0.624E-03
RMM:  15    -0.716378155249E+02   -0.38501E-04   -0.41258E-04   890   0.786E-02    0.921E-03
RMM:  16    -0.716378293874E+02   -0.13863E-04   -0.17252E-04   745   0.674E-02
  19 F= -.71637829E+02 E0= -.71637829E+02  d E =-.754111E+00
 curvature:  -0.13 expect dE=-0.695E-01 dE for cont linesearch -0.120E-03
 trial: gam= 0.99240 g(F)=  0.472E+00 g(S)=  0.466E-01 ort = 0.258E-01 (trialstep = 0.573E+00)
 search vector abs. value=  0.130E+01
 bond charge predicted
       N       E                     dE             d eps       ncg     rms          rms(c)
DAV:   1    -0.717867032660E+02   -0.14889E+00   -0.56248E+01   768   0.391E+01    0.253E+00
RMM:   2    -0.718951524263E+02   -0.10845E+00   -0.17439E+00  1023   0.596E+00    0.894E-01
RMM:   3    -0.719178199286E+02   -0.22668E-01   -0.36304E-01  1248   0.223E+00    0.632E-01
RMM:   4    -0.719212785655E+02   -0.34586E-02   -0.97735E-02  1296   0.110E+00    0.273E-01
RMM:   5    -0.719239557610E+02   -0.26772E-02   -0.34632E-02  1288   0.645E-01    0.135E-01
RMM:   6    -0.719252258438E+02   -0.12701E-02   -0.14854E-02  1308   0.429E-01    0.335E-02
RMM:   7    -0.719258350000E+02   -0.60916E-03   -0.65036E-03  1278   0.285E-01    0.289E-02
RMM:   8    -0.719261636765E+02   -0.32868E-03   -0.34910E-03  1233   0.207E-01    0.166E-02
RMM:   9    -0.719263233513E+02   -0.15967E-03   -0.17012E-03  1228   0.149E-01    0.531E-03
RMM:  10    -0.719264217087E+02   -0.98357E-04   -0.10314E-03  1159   0.114E-01    0.708E-03
RMM:  11    -0.719264674167E+02   -0.45708E-04   -0.47951E-04  1044   0.872E-02    0.389E-03
RMM:  12    -0.719264874839E+02   -0.20067E-04   -0.22611E-04   863   0.713E-02    0.937E-04
RMM:  13    -0.719264970566E+02   -0.95727E-05   -0.12693E-04   807   0.633E-02
  20 F= -.71926497E+02 E0= -.71926497E+02  d E =-.288668E+00
 ZBRENT: can't locate minimum, use default step
 trial-energy change:   -0.288668  1 .order   -0.289523   -0.312097   -0.266949
 step:   2.2938(harm=  3.9641)  dis= 0.17293  next Energy=   -72.716539 (dE=-0.108E+01)
 bond charge predicted
       N       E                     dE             d eps       ncg     rms          rms(c)
DAV:   1    -0.701643802099E+02    0.17621E+01   -0.46969E+02   768   0.115E+02    0.122E+01
RMM:   2    -0.716607930009E+02   -0.14964E+01   -0.23074E+01   992   0.195E+01    0.326E+00
RMM:   3    -0.722756881589E+02   -0.61490E+00   -0.78368E+00  1246   0.836E+00    0.313E+00
RMM:   4    -0.724463467776E+02   -0.17066E+00   -0.22416E+00  1295   0.452E+00    0.150E+00
RMM:   5    -0.724681708358E+02   -0.21824E-01   -0.36823E-01  1289   0.233E+00    0.720E-01
RMM:   6    -0.724797072419E+02   -0.11536E-01   -0.15401E-01  1296   0.148E+00    0.994E-02
RMM:   7    -0.724841808333E+02   -0.44736E-02   -0.47206E-02  1273   0.872E-01    0.754E-02
RMM:   8    -0.724865214890E+02   -0.23407E-02   -0.24214E-02  1326   0.607E-01    0.612E-02
RMM:   9    -0.724876132565E+02   -0.10918E-02   -0.11748E-02  1279   0.412E-01    0.182E-02
RMM:  10    -0.724883325547E+02   -0.71930E-03   -0.75064E-03  1287   0.302E-01    0.215E-02
RMM:  11    -0.724886694434E+02   -0.33689E-03   -0.34776E-03  1229   0.219E-01    0.200E-02
RMM:  12    -0.724888945367E+02   -0.22509E-03   -0.23751E-03  1202   0.173E-01    0.125E-02
RMM:  13    -0.724890162658E+02   -0.12173E-03   -0.12767E-03  1157   0.133E-01    0.220E-03
RMM:  14    -0.724890930908E+02   -0.76825E-04   -0.80561E-04  1097   0.106E-01    0.407E-03
RMM:  15    -0.724891310045E+02   -0.37914E-04   -0.40799E-04   922   0.861E-02    0.371E-03
RMM:  16    -0.724891508089E+02   -0.19804E-04   -0.23185E-04   835   0.747E-02    0.386E-03
RMM:  17    -0.724891632356E+02   -0.12427E-04   -0.16076E-04   836   0.678E-02
  21 F= -.72489163E+02 E0= -.72489163E+02  d E =-.851334E+00
 curvature:  -3.59 expect dE=-0.174E+01 dE for cont linesearch -0.101E+00
 ZBRENT: increasing intervall
 opt :   5.7346  next Energy=   -72.203431 (dE=-0.566E+00)
 bond charge predicted
       N       E                     dE             d eps       ncg     rms          rms(c)
DAV:   1    -0.589842807972E+02    0.13505E+02   -0.15421E+03   768   0.212E+02    0.514E+01
RMM:   2    -0.670360397940E+02   -0.80518E+01   -0.11723E+02   961   0.425E+01    0.132E+01
RMM:   3    -0.698170129570E+02   -0.27810E+01   -0.38092E+01  1291   0.165E+01    0.140E+01
RMM:   4    -0.718353036412E+02   -0.20183E+01   -0.21326E+01  1360   0.107E+01    0.650E+00
RMM:   5    -0.719385025136E+02   -0.10320E+00   -0.19725E+00  1320   0.462E+00    0.406E+00
RMM:   6    -0.719196435700E+02    0.18859E-01   -0.39727E-01  1211   0.284E+00    0.593E-01
RMM:   7    -0.719302833998E+02   -0.10640E-01   -0.20941E-01  1321   0.180E+00    0.169E-01
RMM:   8    -0.719403285788E+02   -0.10045E-01   -0.10974E-01  1307   0.125E+00    0.207E-01
RMM:   9    -0.719447155952E+02   -0.43870E-02   -0.46174E-02  1326   0.892E-01    0.159E-01
RMM:  10    -0.719470812546E+02   -0.23657E-02   -0.25790E-02  1278   0.642E-01    0.392E-02
RMM:  11    -0.719487355643E+02   -0.16543E-02   -0.17217E-02  1323   0.504E-01    0.293E-02
RMM:  12    -0.719497568473E+02   -0.10213E-02   -0.10624E-02  1233   0.390E-01    0.260E-02
RMM:  13    -0.719504132296E+02   -0.65638E-03   -0.68677E-03  1231   0.313E-01    0.222E-02
RMM:  14    -0.719508427952E+02   -0.42957E-03   -0.45105E-03  1228   0.253E-01    0.147E-02
RMM:  15    -0.719511214995E+02   -0.27870E-03   -0.29185E-03  1232   0.208E-01    0.355E-02
RMM:  16    -0.719513084710E+02   -0.18697E-03   -0.20159E-03  1196   0.172E-01    0.531E-03
RMM:  17    -0.719514521570E+02   -0.14369E-03   -0.15077E-03  1155   0.142E-01    0.116E-02
RMM:  18    -0.719515363391E+02   -0.84182E-04   -0.88740E-04  1008   0.116E-01    0.127E-02
RMM:  19    -0.719515891909E+02   -0.52852E-04   -0.57182E-04   937   0.979E-02    0.142E-02
RMM:  20    -0.719516225382E+02   -0.33347E-04   -0.36936E-04   859   0.859E-02    0.179E-02
RMM:  21    -0.719516415247E+02   -0.18987E-04   -0.23697E-04   830   0.774E-02    0.151E-02
RMM:  22    -0.719516543501E+02   -0.12825E-04   -0.16950E-04   793   0.718E-02
  22 F= -.71951654E+02 E0= -.71951654E+02  d E =-.313825E+00
 curvature:  10.18 expect dE= 0.564E+02 dE for cont linesearch  0.215E+01
 ZBRENT: bracketing found
 ZBRENT: interpolating
 opt :   3.2135  next Energy=   -72.577098 (dE=-0.939E+00)
 bond charge predicted
       N       E                     dE             d eps       ncg     rms          rms(c)
DAV:   1    -0.660002922536E+02    0.59513E+01   -0.87096E+02   768   0.159E+02    0.210E+01
RMM:   2    -0.705440016703E+02   -0.45437E+01   -0.59916E+01  1021   0.311E+01    0.754E+00
RMM:   3    -0.722019821110E+02   -0.16580E+01   -0.20859E+01  1270   0.116E+01    0.744E+00
RMM:   4    -0.724971249962E+02   -0.29514E+00   -0.44909E+00  1211   0.588E+00    0.397E+00
RMM:   5    -0.725175954046E+02   -0.20470E-01   -0.92639E-01  1175   0.336E+00    0.695E-01
RMM:   6    -0.725416780221E+02   -0.24083E-01   -0.31196E-01  1293   0.193E+00    0.382E-01
RMM:   7    -0.725491300863E+02   -0.74521E-02   -0.91327E-02  1293   0.114E+00    0.199E-01
RMM:   8    -0.725513981409E+02   -0.22681E-02   -0.33575E-02  1303   0.739E-01    0.652E-02
RMM:   9    -0.725530945646E+02   -0.16964E-02   -0.18412E-02  1297   0.498E-01    0.420E-02
RMM:  10    -0.725539841684E+02   -0.88960E-03   -0.93400E-03  1303   0.358E-01    0.335E-02
RMM:  11    -0.725544840988E+02   -0.49993E-03   -0.52357E-03  1254   0.259E-01    0.345E-02
RMM:  12    -0.725547481522E+02   -0.26405E-03   -0.29130E-03  1226   0.198E-01    0.181E-02
RMM:  13    -0.725549360819E+02   -0.18793E-03   -0.19895E-03  1195   0.153E-01    0.716E-03
RMM:  14    -0.725550373364E+02   -0.10125E-03   -0.10411E-03  1171   0.117E-01    0.131E-02
RMM:  15    -0.725550890805E+02   -0.51744E-04   -0.57076E-04  1012   0.928E-02    0.551E-03
RMM:  16    -0.725551218327E+02   -0.32752E-04   -0.36324E-04   933   0.784E-02    0.444E-03
RMM:  17    -0.725551346513E+02   -0.12819E-04   -0.16075E-04   774   0.674E-02
  23 F= -.72555135E+02 E0= -.72555135E+02  d E =-.917305E+00
 curvature:  -0.42 expect dE=-0.412E+00 dE for cont linesearch -0.312E-03
 trial: gam= 2.01562 g(F)=  0.504E+00 g(S)=  0.485E+00 ort = 0.312E-01 (trialstep = 0.224E+00)
 search vector abs. value=  0.641E+01
 bond charge predicted
       N       E                     dE             d eps       ncg     rms          rms(c)
DAV:   1    -0.726105897967E+02   -0.55468E-01   -0.44424E+01   768   0.351E+01    0.224E+00
RMM:   2    -0.727341720170E+02   -0.12358E+00   -0.14543E+00  1031   0.549E+00    0.824E-01
RMM:   3    -0.727590209163E+02   -0.24849E-01   -0.30558E-01  1274   0.205E+00    0.721E-01
RMM:   4    -0.727608460205E+02   -0.18251E-02   -0.76444E-02  1275   0.103E+00    0.291E-01
RMM:   5    -0.727633340250E+02   -0.24880E-02   -0.32664E-02  1306   0.647E-01    0.858E-02
RMM:   6    -0.727645465102E+02   -0.12125E-02   -0.14538E-02  1313   0.440E-01    0.434E-02
RMM:   7    -0.727652791842E+02   -0.73267E-03   -0.80912E-03  1275   0.318E-01    0.404E-02
RMM:   8    -0.727657138872E+02   -0.43470E-03   -0.45949E-03  1229   0.238E-01    0.307E-02
RMM:   9    -0.727659070912E+02   -0.19320E-03   -0.22815E-03  1226   0.180E-01    0.163E-02
RMM:  10    -0.727660650179E+02   -0.15793E-03   -0.17055E-03  1203   0.142E-01    0.895E-03
RMM:  11    -0.727661475919E+02   -0.82574E-04   -0.87179E-04  1146   0.110E-01    0.919E-03
RMM:  12    -0.727662024706E+02   -0.54879E-04   -0.58539E-04  1027   0.890E-02    0.821E-03
RMM:  13    -0.727662252214E+02   -0.22751E-04   -0.26438E-04   940   0.739E-02    0.229E-03
RMM:  14    -0.727662365990E+02   -0.11378E-04   -0.14780E-04   765   0.654E-02
  24 F= -.72766237E+02 E0= -.72766237E+02  d E =-.211102E+00
 ZBRENT: can't locate minimum, use default step
 trial-energy change:   -0.211102  1 .order   -0.211861   -0.235433   -0.188289
 step:   0.8958(harm=  1.1184)  dis= 0.14960  next Energy=   -73.143007 (dE=-0.588E+00)
 bond charge predicted
       N       E                     dE             d eps       ncg     rms          rms(c)
DAV:   1    -0.709150869393E+02    0.18511E+01   -0.36099E+02   768   0.999E+01    0.985E+00
RMM:   2    -0.724295881762E+02   -0.15145E+01   -0.17852E+01  1016   0.174E+01    0.333E+00
RMM:   3    -0.729883588232E+02   -0.55877E+00   -0.62220E+00  1267   0.740E+00    0.342E+00
RMM:   4    -0.730887974147E+02   -0.10044E+00   -0.15301E+00  1290   0.392E+00    0.183E+00
RMM:   5    -0.731004017950E+02   -0.11604E-01   -0.28502E-01  1275   0.216E+00    0.604E-01
RMM:   6    -0.731134915294E+02   -0.13090E-01   -0.15046E-01  1318   0.143E+00    0.152E-01
RMM:   7    -0.731178815231E+02   -0.43900E-02   -0.46280E-02  1272   0.881E-01    0.108E-01
RMM:   8    -0.731204069320E+02   -0.25254E-02   -0.26407E-02  1325   0.641E-01    0.106E-01
RMM:   9    -0.731216510566E+02   -0.12441E-02   -0.14155E-02  1279   0.470E-01    0.550E-02
RMM:  10    -0.731225166460E+02   -0.86559E-03   -0.92931E-03  1278   0.362E-01    0.307E-02
RMM:  11    -0.731231024058E+02   -0.58576E-03   -0.63315E-03  1232   0.287E-01    0.150E-02
RMM:  12    -0.731234451044E+02   -0.34270E-03   -0.35792E-03  1232   0.224E-01    0.128E-02
RMM:  13    -0.731236793480E+02   -0.23424E-03   -0.24892E-03  1208   0.182E-01    0.760E-03
RMM:  14    -0.731238205007E+02   -0.14115E-03   -0.14994E-03  1190   0.147E-01    0.480E-03
RMM:  15    -0.731239189864E+02   -0.98486E-04   -0.10437E-03  1104   0.121E-01    0.246E-03
RMM:  16    -0.731239779416E+02   -0.58955E-04   -0.63456E-04  1046   0.101E-01    0.309E-03
RMM:  17    -0.731240166929E+02   -0.38751E-04   -0.42618E-04   944   0.866E-02    0.422E-03
RMM:  18    -0.731240351827E+02   -0.18490E-04   -0.21913E-04   797   0.764E-02    0.651E-03
RMM:  19    -0.731240454827E+02   -0.10300E-04   -0.14658E-04   755   0.712E-02
  25 F= -.73124045E+02 E0= -.73124045E+02  d E =-.568911E+00
 curvature:  -3.20 expect dE=-0.895E+00 dE for cont linesearch -0.310E-01
 ZBRENT: extrapolating
 opt :   1.1787  next Energy=   -73.159286 (dE=-0.604E+00)
 bond charge predicted
       N       E                     dE             d eps       ncg     rms          rms(c)
DAV:   1    -0.729014038111E+02    0.22263E+00   -0.68788E+01   768   0.431E+01    0.290E+00
RMM:   2    -0.731073953026E+02   -0.20599E+00   -0.23914E+00  1026   0.694E+00    0.999E-01
RMM:   3    -0.731472165197E+02   -0.39821E-01   -0.50076E-01  1268   0.260E+00    0.898E-01
RMM:   4    -0.731497432947E+02   -0.25268E-02   -0.12104E-01  1266   0.133E+00    0.356E-01
RMM:   5    -0.731543102187E+02   -0.45669E-02   -0.57700E-02  1306   0.847E-01    0.111E-01
RMM:   6    -0.731563737212E+02   -0.20635E-02   -0.23965E-02  1317   0.582E-01    0.476E-02
RMM:   7    -0.731576007952E+02   -0.12271E-02   -0.13436E-02  1279   0.427E-01    0.389E-02
RMM:   8    -0.731584049665E+02   -0.80417E-03   -0.85080E-03  1247   0.331E-01    0.219E-02
RMM:   9    -0.731588149640E+02   -0.41000E-03   -0.44042E-03  1226   0.253E-01    0.575E-03
RMM:  10    -0.731591688331E+02   -0.35387E-03   -0.37035E-03  1218   0.205E-01    0.990E-03
RMM:  11    -0.731593325640E+02   -0.16373E-03   -0.17012E-03  1210   0.158E-01    0.126E-02
RMM:  12    -0.731594653136E+02   -0.13275E-03   -0.13797E-03  1166   0.129E-01    0.200E-02
RMM:  13    -0.731595252071E+02   -0.59893E-04   -0.66161E-04  1106   0.103E-01    0.154E-02
RMM:  14    -0.731595649590E+02   -0.39752E-04   -0.45428E-04  1030   0.875E-02    0.726E-03
RMM:  15    -0.731595948508E+02   -0.29892E-04   -0.31703E-04   980   0.768E-02    0.115E-02
RMM:  16    -0.731596058041E+02   -0.10953E-04   -0.13762E-04   772   0.664E-02
  26 F= -.73159606E+02 E0= -.73159606E+02  d E =-.604471E+00
 curvature:  -3.64 expect dE=-0.144E+01 dE for cont linesearch -0.939E-04
 trial: gam= 0.38329 g(F)=  0.279E+00 g(S)=  0.117E+00 ort = 0.129E-01 (trialstep = 0.415E+00)
 search vector abs. value=  0.135E+01
 bond charge predicted
       N       E                     dE             d eps       ncg     rms          rms(c)
DAV:   1    -0.732231042089E+02   -0.63509E-01   -0.26267E+01   768   0.261E+01    0.227E+00
RMM:   2    -0.732984777651E+02   -0.75374E-01   -0.96531E-01  1010   0.444E+00    0.705E-01
RMM:   3    -0.733062345829E+02   -0.77568E-02   -0.16833E-01  1254   0.158E+00    0.531E-01
RMM:   4    -0.733055987908E+02    0.63579E-03   -0.54032E-02  1212   0.823E-01    0.144E-01
RMM:   5    -0.733075504566E+02   -0.19517E-02   -0.24887E-02  1305   0.526E-01    0.737E-02
RMM:   6    -0.733084589752E+02   -0.90852E-03   -0.11095E-02  1277   0.371E-01    0.342E-02
RMM:   7    -0.733089555375E+02   -0.49656E-03   -0.57506E-03  1228   0.275E-01    0.198E-02
RMM:   8    -0.733093683942E+02   -0.41286E-03   -0.43812E-03  1187   0.219E-01    0.742E-03
RMM:   9    -0.733095688829E+02   -0.20049E-03   -0.20920E-03  1198   0.165E-01    0.631E-03
RMM:  10    -0.733097128810E+02   -0.14400E-03   -0.15144E-03  1132   0.133E-01    0.397E-03
RMM:  11    -0.733097871414E+02   -0.74260E-04   -0.78852E-04  1112   0.106E-01    0.370E-03
RMM:  12    -0.733098365430E+02   -0.49402E-04   -0.53586E-04   973   0.881E-02    0.266E-03
RMM:  13    -0.733098622633E+02   -0.25720E-04   -0.29462E-04   890   0.759E-02    0.169E-03
RMM:  14    -0.733098773141E+02   -0.15051E-04   -0.18683E-04   790   0.682E-02
  27 F= -.73309877E+02 E0= -.73309877E+02  d E =-.150272E+00
 ZBRENT: can't locate minimum, use default step
 trial-energy change:   -0.150272  1 .order   -0.150103   -0.166361   -0.133845
 step:   1.6596(harm=  2.1228)  dis= 0.12924  next Energy=   -73.585187 (dE=-0.426E+00)
 bond charge predicted
       N       E                     dE             d eps       ncg     rms          rms(c)
DAV:   1    -0.724740500515E+02    0.83581E+00   -0.22344E+02   768   0.762E+01    0.896E+00
RMM:   2    -0.733342815356E+02   -0.86023E+00   -0.10857E+01   998   0.138E+01    0.245E+00
RMM:   3    -0.735259488083E+02   -0.19167E+00   -0.28943E+00  1261   0.538E+00    0.232E+00
RMM:   4    -0.735369261631E+02   -0.10977E-01   -0.65248E-01  1204   0.273E+00    0.866E-01
RMM:   5    -0.735450771612E+02   -0.81510E-02   -0.16590E-01  1265   0.158E+00    0.227E-01
RMM:   6    -0.735514359119E+02   -0.63588E-02   -0.82819E-02  1296   0.107E+00    0.115E-01
RMM:   7    -0.735556294203E+02   -0.41935E-02   -0.45653E-02  1271   0.733E-01    0.838E-02
RMM:   8    -0.735576247148E+02   -0.19953E-02   -0.21628E-02  1303   0.522E-01    0.402E-02
RMM:   9    -0.735587368044E+02   -0.11121E-02   -0.12061E-02  1256   0.386E-01    0.141E-02
RMM:  10    -0.735595715170E+02   -0.83471E-03   -0.87846E-03  1223   0.307E-01    0.106E-02
RMM:  11    -0.735600150011E+02   -0.44348E-03   -0.46821E-03  1225   0.237E-01    0.103E-02
RMM:  12    -0.735603384174E+02   -0.32342E-03   -0.34257E-03  1189   0.193E-01    0.871E-03
RMM:  13    -0.735605167808E+02   -0.17836E-03   -0.19090E-03  1167   0.155E-01    0.516E-03
RMM:  14    -0.735606495370E+02   -0.13276E-03   -0.14151E-03  1096   0.127E-01    0.568E-03
RMM:  15    -0.735607256597E+02   -0.76123E-04   -0.82256E-04  1015   0.105E-01    0.429E-03
RMM:  16    -0.735607785243E+02   -0.52865E-04   -0.57906E-04   942   0.905E-02    0.443E-03
RMM:  17    -0.735608060891E+02   -0.27565E-04   -0.31903E-04   833   0.791E-02    0.427E-03
RMM:  18    -0.735608236445E+02   -0.17555E-04   -0.22026E-04   798   0.728E-02    0.276E-03
RMM:  19    -0.735608342600E+02   -0.10616E-04   -0.14975E-04   786   0.682E-02
  28 F= -.73560834E+02 E0= -.73560834E+02  d E =-.401228E+00
 curvature:  -3.30 expect dE=-0.132E+01 dE for cont linesearch -0.127E-01
 trial: gam= 0.80938 g(F)=  0.360E+00 g(S)=  0.399E-01 ort = 0.720E-01 (trialstep = 0.639E+00)
 search vector abs. value=  0.140E+01
 bond charge predicted
       N       E                     dE             d eps       ncg     rms          rms(c)
DAV:   1    -0.735886891839E+02   -0.27866E-01   -0.63087E+01   768   0.397E+01    0.312E+00
RMM:   2    -0.737872521913E+02   -0.19856E+00   -0.25305E+00  1003   0.681E+00    0.103E+00
RMM:   3    -0.738048032670E+02   -0.17551E-01   -0.45056E-01  1250   0.247E+00    0.755E-01
RMM:   4    -0.738059745499E+02   -0.11713E-02   -0.12428E-01  1227   0.123E+00    0.281E-01
RMM:   5    -0.738108152816E+02   -0.48407E-02   -0.60674E-02  1273   0.781E-01    0.123E-01
RMM:   6    -0.738129119165E+02   -0.20966E-02   -0.24285E-02  1277   0.536E-01    0.444E-02
RMM:   7    -0.738139566748E+02   -0.10448E-02   -0.11733E-02  1228   0.377E-01    0.229E-02
RMM:   8    -0.738147851887E+02   -0.82851E-03   -0.87729E-03  1199   0.292E-01    0.133E-02
RMM:   9    -0.738151293051E+02   -0.34412E-03   -0.36244E-03  1163   0.212E-01    0.941E-03
RMM:  10    -0.738154052239E+02   -0.27592E-03   -0.29254E-03  1163   0.171E-01    0.412E-03
RMM:  11    -0.738155335869E+02   -0.12836E-03   -0.13561E-03  1086   0.132E-01    0.353E-03
RMM:  12    -0.738156261733E+02   -0.92586E-04   -0.99157E-04  1030   0.108E-01    0.135E-03
RMM:  13    -0.738156738580E+02   -0.47685E-04   -0.52176E-04   966   0.892E-02    0.278E-03
RMM:  14    -0.738157038820E+02   -0.30024E-04   -0.33947E-04   859   0.768E-02    0.248E-03
RMM:  15    -0.738157181426E+02   -0.14261E-04   -0.17926E-04   808   0.691E-02
  29 F= -.73815718E+02 E0= -.73815718E+02  d E =-.254884E+00
 trial-energy change:   -0.254884  1 .order   -0.254352   -0.292762   -0.215942
 step:   2.2108(harm=  2.4366)  dis= 0.16283  next Energy=   -74.089004 (dE=-0.528E+00)
 bond charge predicted
       N       E                     dE             d eps       ncg     rms          rms(c)
DAV:   1    -0.721132918507E+02    0.17024E+01   -0.35944E+02   768   0.960E+01    0.112E+01
RMM:   2    -0.735787111221E+02   -0.14654E+01   -0.19007E+01   989   0.178E+01    0.280E+00
RMM:   3    -0.739673812397E+02   -0.38867E+00   -0.53514E+00  1258   0.685E+00    0.252E+00
RMM:   4    -0.740502107748E+02   -0.82830E-01   -0.14607E+00  1222   0.352E+00    0.112E+00
RMM:   5    -0.740618299936E+02   -0.11619E-01   -0.23797E-01  1258   0.183E+00    0.449E-01
RMM:   6    -0.740724149535E+02   -0.10585E-01   -0.12959E-01  1294   0.123E+00    0.127E-01
RMM:   7    -0.740759045457E+02   -0.34896E-02   -0.39762E-02  1263   0.724E-01    0.657E-02
RMM:   8    -0.740776104470E+02   -0.17059E-02   -0.18549E-02  1320   0.476E-01    0.309E-02
RMM:   9    -0.740784446221E+02   -0.83418E-03   -0.90049E-03  1258   0.325E-01    0.137E-02
RMM:  10    -0.740789698347E+02   -0.52521E-03   -0.55501E-03  1229   0.241E-01    0.112E-02
RMM:  11    -0.740792310916E+02   -0.26126E-03   -0.27622E-03  1193   0.178E-01    0.777E-03
RMM:  12    -0.740793909418E+02   -0.15985E-03   -0.17092E-03  1133   0.138E-01    0.255E-03
RMM:  13    -0.740794772761E+02   -0.86334E-04   -0.92114E-04  1018   0.108E-01    0.431E-03
RMM:  14    -0.740795276780E+02   -0.50402E-04   -0.55332E-04   949   0.886E-02    0.425E-03
RMM:  15    -0.740795545356E+02   -0.26858E-04   -0.30648E-04   869   0.753E-02    0.509E-03
RMM:  16    -0.740795675274E+02   -0.12992E-04   -0.16583E-04   782   0.668E-02
  30 F= -.74079568E+02 E0= -.74079568E+02  d E =-.518733E+00
 curvature:  -3.66 expect dE=-0.166E+01 dE for cont linesearch -0.987E-04
 trial: gam= 1.39046 g(F)=  0.229E+00 g(S)=  0.223E+00 ort =-0.614E-02 (trialstep = 0.425E+00)
 search vector abs. value=  0.314E+01
 bond charge predicted
       N       E                     dE             d eps       ncg     rms          rms(c)
DAV:   1    -0.739910886648E+02    0.88466E-01   -0.66594E+01   768   0.415E+01    0.213E+00
RMM:   2    -0.741871841664E+02   -0.19610E+00   -0.25044E+00  1017   0.686E+00    0.113E+00
RMM:   3    -0.742311927783E+02   -0.44009E-01   -0.58900E-01  1256   0.269E+00    0.899E-01
RMM:   4    -0.742337526976E+02   -0.25599E-02   -0.13124E-01  1246   0.131E+00    0.429E-01
RMM:   5    -0.742365869352E+02   -0.28342E-02   -0.48935E-02  1245   0.795E-01    0.137E-01
RMM:   6    -0.742383447564E+02   -0.17578E-02   -0.23799E-02  1294   0.536E-01    0.830E-02
RMM:   7    -0.742394741934E+02   -0.11294E-02   -0.12722E-02  1266   0.362E-01    0.484E-02
RMM:   8    -0.742400267031E+02   -0.55251E-03   -0.61223E-03  1236   0.250E-01    0.151E-02
RMM:   9    -0.742402859917E+02   -0.25929E-03   -0.27581E-03  1198   0.174E-01    0.101E-02
RMM:  10    -0.742404535688E+02   -0.16758E-03   -0.17831E-03  1155   0.131E-01    0.909E-03
RMM:  11    -0.742405234652E+02   -0.69896E-04   -0.74784E-04  1096   0.969E-02    0.809E-03
RMM:  12    -0.742405601872E+02   -0.36722E-04   -0.42440E-04   884   0.768E-02    0.251E-03
RMM:  13    -0.742405802616E+02   -0.20074E-04   -0.24190E-04   847   0.661E-02    0.284E-03
RMM:  14    -0.742405879355E+02   -0.76740E-05   -0.11219E-04   712   0.588E-02
  31 F= -.74240588E+02 E0= -.74240588E+02  d E =-.161020E+00
 trial-energy change:   -0.161020  1 .order   -0.161151   -0.188465   -0.133838
 step:   1.4659(harm=  1.4659)  dis= 0.16402  next Energy=   -74.404674 (dE=-0.325E+00)
 bond charge predicted
       N       E                     dE             d eps       ncg     rms          rms(c)
DAV:   1    -0.721213970437E+02    0.21192E+01   -0.35861E+02   768   0.960E+01    0.742E+00
RMM:   2    -0.737265323636E+02   -0.16051E+01   -0.20019E+01  1004   0.176E+01    0.336E+00
RMM:   3    -0.742838224388E+02   -0.55729E+00   -0.66499E+00  1261   0.751E+00    0.311E+00
RMM:   4    -0.743749376577E+02   -0.91115E-01   -0.14961E+00  1234   0.374E+00    0.163E+00
RMM:   5    -0.743839055970E+02   -0.89679E-02   -0.27614E-01  1218   0.197E+00    0.381E-01
RMM:   6    -0.743925832138E+02   -0.86776E-02   -0.11155E-01  1293   0.118E+00    0.247E-01
RMM:   7    -0.743956801360E+02   -0.30969E-02   -0.36379E-02  1254   0.683E-01    0.126E-01
RMM:   8    -0.743966259760E+02   -0.94584E-03   -0.13219E-02  1288   0.426E-01    0.383E-02
RMM:   9    -0.743972129718E+02   -0.58700E-03   -0.65309E-03  1302   0.280E-01    0.304E-02
RMM:  10    -0.743975130225E+02   -0.30005E-03   -0.32894E-03  1216   0.193E-01    0.168E-02
RMM:  11    -0.743976705579E+02   -0.15754E-03   -0.16637E-03  1191   0.137E-01    0.177E-02
RMM:  12    -0.743977561239E+02   -0.85566E-04   -0.83663E-04  1067   0.996E-02    0.258E-02
RMM:  13    -0.743977807801E+02   -0.24656E-04   -0.43598E-04  1121   0.774E-02    0.613E-03
RMM:  14    -0.743977899622E+02   -0.91822E-05   -0.12759E-04   693   0.585E-02
  32 F= -.74397790E+02 E0= -.74397790E+02  d E =-.318222E+00
 curvature:  -5.19 expect dE=-0.202E+01 dE for cont linesearch -0.315E-03
 trial: gam= 0.57569 g(F)=  0.341E+00 g(S)=  0.489E-01 ort =-0.138E-01 (trialstep = 0.633E+00)
 search vector abs. value=  0.141E+01
 bond charge predicted
       N       E                     dE             d eps       ncg     rms          rms(c)
DAV:   1    -0.743399563609E+02    0.57824E-01   -0.67433E+01   768   0.412E+01    0.308E+00
RMM:   2    -0.745411062821E+02   -0.20115E+00   -0.24771E+00  1018   0.692E+00    0.102E+00
RMM:   3    -0.745893739960E+02   -0.48268E-01   -0.60299E-01  1261   0.271E+00    0.721E-01
RMM:   4    -0.745934380703E+02   -0.40641E-02   -0.12265E-01  1264   0.127E+00    0.334E-01
RMM:   5    -0.745959200426E+02   -0.24820E-02   -0.40147E-02  1275   0.719E-01    0.122E-01
RMM:   6    -0.745973752980E+02   -0.14553E-02   -0.17456E-02  1320   0.458E-01    0.613E-02
RMM:   7    -0.745980381781E+02   -0.66288E-03   -0.76144E-03  1274   0.293E-01    0.323E-02
RMM:   8    -0.745983754747E+02   -0.33730E-03   -0.36987E-03  1228   0.198E-01    0.112E-02
RMM:   9    -0.745985227487E+02   -0.14727E-03   -0.15974E-03  1188   0.133E-01    0.646E-03
RMM:  10    -0.745986003717E+02   -0.77623E-04   -0.84234E-04  1123   0.969E-02    0.492E-03
RMM:  11    -0.745986252588E+02   -0.24887E-04   -0.27703E-04   838   0.708E-02    0.498E-03
RMM:  12    -0.745986319198E+02   -0.66610E-05   -0.10270E-04   712   0.605E-02
  33 F= -.74598632E+02 E0= -.74598632E+02  d E =-.200842E+00
 trial-energy change:   -0.200842  1 .order   -0.200625   -0.242112   -0.159138
 step:   1.8474(harm=  1.8474)  dis= 0.16994  next Energy=   -74.751024 (dE=-0.353E+00)
 bond charge predicted
       N       E                     dE             d eps       ncg     rms          rms(c)
DAV:   1    -0.734121015624E+02    0.11865E+01   -0.23209E+02   768   0.761E+01    0.687E+00
RMM:   2    -0.743584694757E+02   -0.94637E+00   -0.11595E+01  1002   0.137E+01    0.215E+00
RMM:   3    -0.746928350617E+02   -0.33437E+00   -0.39626E+00  1261   0.586E+00    0.173E+00
RMM:   4    -0.747353542099E+02   -0.42519E-01   -0.74343E-01  1258   0.277E+00    0.909E-01
RMM:   5    -0.747378150835E+02   -0.24609E-02   -0.13170E-01  1234   0.141E+00    0.246E-01
RMM:   6    -0.747428732209E+02   -0.50581E-02   -0.60777E-02  1312   0.891E-01    0.148E-01
RMM:   7    -0.747448036924E+02   -0.19305E-02   -0.22045E-02  1266   0.517E-01    0.877E-02
RMM:   8    -0.747455076446E+02   -0.70395E-03   -0.82037E-03  1274   0.318E-01    0.208E-02
RMM:   9    -0.747458567053E+02   -0.34906E-03   -0.38635E-03  1241   0.208E-01    0.102E-02
RMM:  10    -0.747460409416E+02   -0.18424E-03   -0.19682E-03  1152   0.146E-01    0.709E-03
RMM:  11    -0.747461245875E+02   -0.83646E-04   -0.88341E-04  1113   0.104E-01    0.372E-03
RMM:  12    -0.747461571290E+02   -0.32541E-04   -0.36251E-04   899   0.777E-02    0.162E-03
RMM:  13    -0.747461689731E+02   -0.11844E-04   -0.15242E-04   737   0.651E-02
  34 F= -.74746169E+02 E0= -.74746169E+02  d E =-.348379E+00
 curvature:  -3.42 expect dE=-0.190E+01 dE for cont linesearch -0.398E-03
 trial: gam= 1.33900 g(F)=  0.341E+00 g(S)=  0.213E+00 ort =-0.128E-01 (trialstep = 0.405E+00)
 search vector abs. value=  0.306E+01
 bond charge predicted
       N       E                     dE             d eps       ncg     rms          rms(c)
DAV:   1    -0.747107862903E+02    0.35371E-01   -0.60996E+01   768   0.383E+01    0.230E+00
RMM:   2    -0.748959252459E+02   -0.18514E+00   -0.21524E+00  1025   0.643E+00    0.727E-01
RMM:   3    -0.749318606037E+02   -0.35935E-01   -0.44470E-01  1270   0.240E+00    0.537E-01
RMM:   4    -0.749358655514E+02   -0.40049E-02   -0.97418E-02  1262   0.111E+00    0.276E-01
RMM:   5    -0.749382971247E+02   -0.24316E-02   -0.33415E-02  1260   0.635E-01    0.106E-01
RMM:   6    -0.749395931445E+02   -0.12960E-02   -0.14548E-02  1310   0.412E-01    0.353E-02
RMM:   7    -0.749401680862E+02   -0.57494E-03   -0.61361E-03  1267   0.260E-01    0.180E-02
RMM:   8    -0.749404322027E+02   -0.26412E-03   -0.28070E-03  1199   0.174E-01    0.102E-02
RMM:   9    -0.749405497044E+02   -0.11750E-03   -0.12883E-03  1163   0.120E-01    0.363E-03
RMM:  10    -0.749406110749E+02   -0.61371E-04   -0.66259E-04  1049   0.878E-02    0.204E-03
RMM:  11    -0.749406289098E+02   -0.17835E-04   -0.20113E-04   759   0.662E-02    0.142E-03
RMM:  12    -0.749406343425E+02   -0.54327E-05   -0.91591E-05   705   0.594E-02
  35 F= -.74940634E+02 E0= -.74940634E+02  d E =-.194465E+00
 ZBRENT: can't locate minimum, use default step
 trial-energy change:   -0.194465  1 .order   -0.194491   -0.217921   -0.171061
 step:   1.6216(harm=  1.8853)  dis= 0.22606  next Energy=   -75.252893 (dE=-0.507E+00)
 bond charge predicted
       N       E                     dE             d eps       ncg     rms          rms(c)
DAV:   1    -0.714967010526E+02    0.34439E+01   -0.49498E+02   768   0.111E+02    0.114E+01
RMM:   2    -0.740390561980E+02   -0.25424E+01   -0.30415E+01   982   0.209E+01    0.275E+00
RMM:   3    -0.749632336226E+02   -0.92418E+00   -0.10371E+01  1259   0.865E+00    0.275E+00
RMM:   4    -0.751953580999E+02   -0.23212E+00   -0.27844E+00  1258   0.448E+00    0.159E+00
RMM:   5    -0.752152661372E+02   -0.19908E-01   -0.42038E-01  1256   0.221E+00    0.897E-01
RMM:   6    -0.752187606310E+02   -0.34945E-02   -0.12398E-01  1275   0.133E+00    0.109E-01
RMM:   7    -0.752225485707E+02   -0.37879E-02   -0.38266E-02  1281   0.720E-01    0.782E-02
RMM:   8    -0.752240491364E+02   -0.15006E-02   -0.15647E-02  1306   0.445E-01    0.463E-02
RMM:   9    -0.752246346395E+02   -0.58550E-03   -0.60034E-03  1290   0.276E-01    0.324E-02
RMM:  10    -0.752249069052E+02   -0.27227E-03   -0.29475E-03  1264   0.188E-01    0.165E-02
RMM:  11    -0.752250392136E+02   -0.13231E-03   -0.14585E-03  1134   0.129E-01    0.893E-03
RMM:  12    -0.752251116345E+02   -0.72421E-04   -0.77869E-04   999   0.981E-02    0.413E-03
RMM:  13    -0.752251437913E+02   -0.32157E-04   -0.34950E-04   897   0.770E-02    0.185E-03
RMM:  14    -0.752251545985E+02   -0.10807E-04   -0.13582E-04   715   0.656E-02
  36 F= -.75225155E+02 E0= -.75225155E+02  d E =-.478986E+00
 curvature:  -5.19 expect dE=-0.722E+00 dE for cont linesearch -0.293E-02
 ZBRENT: extrapolating
 opt :   1.7544  next Energy=   -75.227913 (dE=-0.482E+00)
 bond charge predicted
       N       E                     dE             d eps       ncg     rms          rms(c)
DAV:   1    -0.752068893468E+02    0.18254E-01   -0.67993E+00   912   0.128E+01    0.669E-01
RMM:   2    -0.752246964028E+02   -0.17807E-01   -0.20395E-01  1021   0.207E+00    0.233E-01
RMM:   3    -0.752268891632E+02   -0.21928E-02   -0.30851E-02  1271   0.716E-01    0.182E-01
RMM:   4    -0.752270822624E+02   -0.19310E-03   -0.86921E-03  1255   0.313E-01    0.758E-02
RMM:   5    -0.752274105790E+02   -0.32832E-03   -0.38608E-03  1218   0.199E-01    0.307E-02
RMM:   6    -0.752275557297E+02   -0.14515E-03   -0.17450E-03  1200   0.138E-01    0.980E-03
RMM:   7    -0.752276275356E+02   -0.71806E-04   -0.80170E-04  1084   0.974E-02    0.531E-03
RMM:   8    -0.752276590691E+02   -0.31534E-04   -0.34877E-04   895   0.732E-02    0.299E-03
RMM:   9    -0.752276665477E+02   -0.74786E-05   -0.10671E-04   730   0.604E-02
  37 F= -.75227667E+02 E0= -.75227667E+02  d E =-.481498E+00
 curvature:  -4.89 expect dE=-0.731E+00 dE for cont linesearch -0.171E-05
 trial: gam= 0.19263 g(F)=  0.141E+00 g(S)=  0.813E-02 ort =-0.103E-02 (trialstep = 0.675E+00)
 search vector abs. value=  0.263E+00
 bond charge predicted
       N       E                     dE             d eps       ncg     rms          rms(c)
DAV:   1    -0.752553864268E+02   -0.27727E-01   -0.11557E+01   768   0.164E+01    0.159E+00
RMM:   2    -0.753002230653E+02   -0.44837E-01   -0.50777E-01   999   0.320E+00    0.532E-01
RMM:   3    -0.753030256307E+02   -0.28026E-02   -0.78227E-02  1260   0.112E+00    0.554E-01
RMM:   4    -0.753032322321E+02   -0.20660E-03   -0.25083E-02  1248   0.513E-01    0.256E-01
RMM:   5    -0.753039983270E+02   -0.76609E-03   -0.10328E-02  1244   0.320E-01    0.744E-02
RMM:   6    -0.753044076759E+02   -0.40935E-03   -0.45345E-03  1242   0.211E-01    0.151E-02
RMM:   7    -0.753045833626E+02   -0.17569E-03   -0.18451E-03  1158   0.139E-01    0.140E-02
RMM:   8    -0.753046637844E+02   -0.80422E-04   -0.86810E-04  1101   0.991E-02    0.934E-03
RMM:   9    -0.753046961103E+02   -0.32326E-04   -0.36014E-04   961   0.748E-02    0.908E-03
RMM:  10    -0.753047049682E+02   -0.88579E-05   -0.13879E-04   776   0.604E-02
  38 F= -.75304705E+02 E0= -.75304705E+02  d E =-.770384E-01
 trial-energy change:   -0.077038  1 .order   -0.077411   -0.100892   -0.053930
 step:   1.5456(harm=  1.4506)  dis= 0.04242  next Energy=   -75.338664 (dE=-0.111E+00)
 bond charge predicted
       N       E                     dE             d eps       ncg     rms          rms(c)
DAV:   1    -0.752528968992E+02    0.51799E-01   -0.19109E+01   768   0.211E+01    0.206E+00
RMM:   2    -0.753269857489E+02   -0.74089E-01   -0.83880E-01  1001   0.413E+00    0.686E-01
RMM:   3    -0.753333328265E+02   -0.63471E-02   -0.13437E-01  1261   0.145E+00    0.718E-01
RMM:   4    -0.753336551396E+02   -0.32231E-03   -0.42062E-02  1247   0.676E-01    0.328E-01
RMM:   5    -0.753349296370E+02   -0.12745E-02   -0.17165E-02  1240   0.418E-01    0.953E-02
RMM:   6    -0.753356109421E+02   -0.68131E-03   -0.75832E-03  1291   0.277E-01    0.204E-02
RMM:   7    -0.753359075497E+02   -0.29661E-03   -0.31286E-03  1185   0.182E-01    0.183E-02
RMM:   8    -0.753360494420E+02   -0.14189E-03   -0.15316E-03  1173   0.130E-01    0.112E-02
RMM:   9    -0.753361147459E+02   -0.65304E-04   -0.71033E-04  1117   0.956E-02    0.106E-02
RMM:  10    -0.753361412544E+02   -0.26509E-04   -0.32203E-04   897   0.724E-02    0.354E-03
RMM:  11    -0.753361528196E+02   -0.11565E-04   -0.15146E-04   797   0.619E-02
  39 F= -.75336153E+02 E0= -.75336153E+02  d E =-.108486E+00
 curvature:  -1.26 expect dE=-0.173E+00 dE for cont linesearch -0.163E-03
 trial: gam= 0.92279 g(F)=  0.777E-01 g(S)=  0.599E-01 ort =-0.584E-02 (trialstep = 0.636E+00)
 search vector abs. value=  0.350E+00
 bond charge predicted
       N       E                     dE             d eps       ncg     rms          rms(c)
DAV:   1    -0.754037753061E+02   -0.67634E-01   -0.11203E+01   768   0.159E+01    0.249E+00
RMM:   2    -0.754065728807E+02   -0.27976E-02   -0.49921E-01   999   0.314E+00    0.732E-01
RMM:   3    -0.753999888888E+02    0.65840E-02   -0.75281E-02  1173   0.107E+00    0.469E-01
RMM:   4    -0.753988251602E+02    0.11637E-02   -0.22649E-02  1211   0.497E-01    0.230E-01
RMM:   5    -0.753991990346E+02   -0.37387E-03   -0.83520E-03  1257   0.308E-01    0.103E-01
RMM:   6    -0.753995609228E+02   -0.36189E-03   -0.41819E-03  1212   0.204E-01    0.371E-02
RMM:   7    -0.753997137657E+02   -0.15284E-03   -0.16551E-03  1191   0.138E-01    0.151E-02
RMM:   8    -0.753997908692E+02   -0.77104E-04   -0.84631E-04  1102   0.100E-01    0.583E-03
RMM:   9    -0.753998254938E+02   -0.34625E-04   -0.38208E-04   949   0.763E-02    0.548E-03
RMM:  10    -0.753998374408E+02   -0.11947E-04   -0.14748E-04   770   0.623E-02
  40 F= -.75399837E+02 E0= -.75399837E+02  d E =-.636846E-01
 trial-energy change:   -0.063685  1 .order   -0.063772   -0.084147   -0.043396
 step:   1.3142(harm=  1.3142)  dis= 0.05444  next Energy=   -75.423031 (dE=-0.869E-01)
 bond charge predicted
       N       E                     dE             d eps       ncg     rms          rms(c)
DAV:   1    -0.754261449586E+02   -0.26319E-01   -0.12803E+01   768   0.171E+01    0.266E+00
RMM:   2    -0.754300016416E+02   -0.38567E-02   -0.57152E-01   996   0.335E+00    0.783E-01
RMM:   3    -0.754223220683E+02    0.76796E-02   -0.85496E-02  1171   0.114E+00    0.498E-01
RMM:   4    -0.754210270035E+02    0.12951E-02   -0.25906E-02  1208   0.530E-01    0.245E-01
RMM:   5    -0.754214286194E+02   -0.40162E-03   -0.95074E-03  1255   0.330E-01    0.110E-01
RMM:   6    -0.754218401170E+02   -0.41150E-03   -0.47716E-03  1218   0.219E-01    0.396E-02
RMM:   7    -0.754220176943E+02   -0.17758E-03   -0.19231E-03  1186   0.149E-01    0.167E-02
RMM:   8    -0.754221104745E+02   -0.92780E-04   -0.10151E-03  1145   0.109E-01    0.575E-03
RMM:   9    -0.754221539080E+02   -0.43434E-04   -0.47488E-04   996   0.817E-02    0.442E-03
RMM:  10    -0.754221720403E+02   -0.18132E-04   -0.20867E-04   826   0.652E-02    0.170E-03
RMM:  11    -0.754221754424E+02   -0.34021E-05   -0.65223E-05   668   0.573E-02
  41 F= -.75422175E+02 E0= -.75422175E+02  d E =-.860226E-01
 curvature:  -1.74 expect dE=-0.100E+00 dE for cont linesearch -0.232E-04
 trial: gam= 0.32047 g(F)=  0.552E-01 g(S)=  0.237E-02 ort =-0.216E-02 (trialstep = 0.772E+00)
 search vector abs. value=  0.922E-01
 bond charge predicted
       N       E                     dE             d eps       ncg     rms          rms(c)
DAV:   1    -0.754539023705E+02   -0.31730E-01   -0.55786E+00   816   0.115E+01    0.111E+00
RMM:   2    -0.754589847737E+02   -0.50824E-02   -0.19735E-01  1018   0.205E+00    0.457E-01
RMM:   3    -0.754584271504E+02    0.55762E-03   -0.36378E-02  1186   0.740E-01    0.231E-01
RMM:   4    -0.754584998586E+02   -0.72708E-04   -0.10428E-02  1249   0.346E-01    0.114E-01
RMM:   5    -0.754588826169E+02   -0.38276E-03   -0.50873E-03  1237   0.228E-01    0.476E-02
RMM:   6    -0.754590761194E+02   -0.19350E-03   -0.20802E-03  1210   0.152E-01    0.151E-02
RMM:   7    -0.754591608463E+02   -0.84727E-04   -0.88685E-04  1135   0.106E-01    0.938E-03
RMM:   8    -0.754592032684E+02   -0.42422E-04   -0.45882E-04   984   0.812E-02    0.251E-03
RMM:   9    -0.754592148984E+02   -0.11630E-04   -0.14024E-04   774   0.645E-02
  42 F= -.75459215E+02 E0= -.75459215E+02  d E =-.370395E-01
 trial-energy change:   -0.037039  1 .order   -0.037175   -0.043896   -0.030454
 step:   3.0767(harm=  2.5209)  dis= 0.06838  next Energy=   -75.501067 (dE=-0.789E-01)
 bond charge predicted
       N       E                     dE             d eps       ncg     rms          rms(c)
DAV:   1    -0.754266229401E+02    0.32580E-01   -0.50072E+01   768   0.347E+01    0.366E+00
RMM:   2    -0.754777900862E+02   -0.51167E-01   -0.18958E+00  1015   0.620E+00    0.135E+00
RMM:   3    -0.754763869779E+02    0.14031E-02   -0.37487E-01  1200   0.225E+00    0.678E-01
RMM:   4    -0.754779604717E+02   -0.15735E-02   -0.98947E-02  1272   0.108E+00    0.362E-01
RMM:   5    -0.754812734346E+02   -0.33130E-02   -0.45107E-02  1274   0.686E-01    0.149E-01
RMM:   6    -0.754829359004E+02   -0.16625E-02   -0.18223E-02  1311   0.460E-01    0.415E-02
RMM:   7    -0.754837143989E+02   -0.77850E-03   -0.81521E-03  1250   0.310E-01    0.325E-02
RMM:   8    -0.754841499436E+02   -0.43554E-03   -0.45981E-03  1215   0.229E-01    0.967E-03
RMM:   9    -0.754843621891E+02   -0.21225E-03   -0.22198E-03  1189   0.165E-01    0.793E-03
RMM:  10    -0.754844902806E+02   -0.12809E-03   -0.13492E-03  1154   0.126E-01    0.826E-03
RMM:  11    -0.754845556674E+02   -0.65387E-04   -0.66005E-04  1073   0.951E-02    0.170E-02
RMM:  12    -0.754845821663E+02   -0.26499E-04   -0.33990E-04   992   0.774E-02    0.288E-03
RMM:  13    -0.754845969788E+02   -0.14812E-04   -0.18225E-04   835   0.653E-02
  43 F= -.75484597E+02 E0= -.75484597E+02  d E =-.624215E-01
 curvature:  -1.84 expect dE=-0.357E+00 dE for cont linesearch -0.600E-02
 ZBRENT: interpolating
 opt :   2.3726  next Energy=   -75.490708 (dE=-0.685E-01)
 bond charge predicted
       N       E                     dE             d eps       ncg     rms          rms(c)
DAV:   1    -0.754850745488E+02   -0.49238E-03   -0.46348E+00   800   0.105E+01    0.948E-01
RMM:   2    -0.754904170300E+02   -0.53425E-02   -0.16961E-01  1016   0.188E+00    0.442E-01
RMM:   3    -0.754903483199E+02    0.68710E-04   -0.34129E-02  1200   0.697E-01    0.241E-01
RMM:   4    -0.754902930969E+02    0.55223E-04   -0.87571E-03  1252   0.329E-01    0.108E-01
RMM:   5    -0.754905323649E+02   -0.23927E-03   -0.36606E-03  1258   0.200E-01    0.462E-02
RMM:   6    -0.754906719757E+02   -0.13961E-03   -0.15533E-03  1186   0.132E-01    0.134E-02
RMM:   7    -0.754907299062E+02   -0.57931E-04   -0.63388E-04  1056   0.914E-02    0.675E-03
RMM:   8    -0.754907602598E+02   -0.30354E-04   -0.33891E-04   929   0.720E-02    0.411E-03
RMM:   9    -0.754907637747E+02   -0.35149E-05   -0.61012E-05   666   0.587E-02
  44 F= -.75490764E+02 E0= -.75490764E+02  d E =-.685883E-01
 curvature:  -1.87 expect dE=-0.202E+00 dE for cont linesearch -0.129E-05
 trial: gam= 1.85426 g(F)=  0.553E-01 g(S)=  0.529E-01 ort = 0.253E-03 (trialstep = 0.236E+00)
 search vector abs. value=  0.426E+00
 bond charge predicted
       N       E                     dE             d eps       ncg     rms          rms(c)
DAV:   1    -0.755053969519E+02   -0.14637E-01   -0.28087E+00   792   0.835E+00    0.554E-01
RMM:   2    -0.755135916318E+02   -0.81947E-02   -0.91682E-02  1014   0.140E+00    0.187E-01
RMM:   3    -0.755144086743E+02   -0.81704E-03   -0.13120E-02  1254   0.467E-01    0.162E-01
RMM:   4    -0.755144458616E+02   -0.37187E-04   -0.42625E-03  1240   0.212E-01    0.581E-02
RMM:   5    -0.755145885517E+02   -0.14269E-03   -0.17795E-03  1203   0.135E-01    0.232E-02
RMM:   6    -0.755146502603E+02   -0.61709E-04   -0.80836E-04  1146   0.954E-02    0.634E-03
RMM:   7    -0.755146756209E+02   -0.25361E-04   -0.29635E-04   853   0.691E-02    0.487E-03
RMM:   8    -0.755146831696E+02   -0.75487E-05   -0.10672E-04   692   0.586E-02
  45 F= -.75514683E+02 E0= -.75514683E+02  d E =-.239194E-01
 ZBRENT: can't locate minimum, use default step
 trial-energy change:   -0.023919  1 .order   -0.023907   -0.025677   -0.022138
 step:   0.9450(harm=  1.7139)  dis= 0.04599  next Energy=   -75.583900 (dE=-0.931E-01)
 bond charge predicted
       N       E                     dE             d eps       ncg     rms          rms(c)
DAV:   1    -0.754684211545E+02    0.46254E-01   -0.24985E+01   768   0.249E+01    0.172E+00
RMM:   2    -0.755480454984E+02   -0.79624E-01   -0.89132E-01  1021   0.426E+00    0.596E-01
RMM:   3    -0.755593260621E+02   -0.11281E-01   -0.15639E-01  1269   0.153E+00    0.546E-01
RMM:   4    -0.755603089660E+02   -0.98290E-03   -0.44791E-02  1269   0.747E-01    0.228E-01
RMM:   5    -0.755618669766E+02   -0.15580E-02   -0.19830E-02  1269   0.471E-01    0.712E-02
RMM:   6    -0.755625992839E+02   -0.73231E-03   -0.88091E-03  1312   0.325E-01    0.216E-02
RMM:   7    -0.755630173525E+02   -0.41807E-03   -0.45225E-03  1220   0.226E-01    0.190E-02
RMM:   8    -0.755632440234E+02   -0.22667E-03   -0.23925E-03  1203   0.167E-01    0.118E-02
RMM:   9    -0.755633571502E+02   -0.11313E-03   -0.12435E-03  1138   0.124E-01    0.347E-03
RMM:  10    -0.755634325751E+02   -0.75425E-04   -0.79989E-04  1053   0.963E-02    0.397E-03
RMM:  11    -0.755634623592E+02   -0.29784E-04   -0.32026E-04   921   0.744E-02    0.313E-03
RMM:  12    -0.755634740463E+02   -0.11687E-04   -0.14800E-04   753   0.638E-02
  46 F= -.75563474E+02 E0= -.75563474E+02  d E =-.727103E-01
 curvature:  -2.45 expect dE=-0.974E-01 dE for cont linesearch -0.119E-01
 ZBRENT: increasing intervall
 opt :   2.3625  next Energy=   -75.559710 (dE=-0.689E-01)
 bond charge predicted
       N       E                     dE             d eps       ncg     rms          rms(c)
DAV:   1    -0.751059722202E+02    0.45749E+00   -0.97514E+01   768   0.493E+01    0.377E+00
RMM:   2    -0.754665949213E+02   -0.36062E+00   -0.40674E+00  1021   0.867E+00    0.128E+00
RMM:   3    -0.755444894515E+02   -0.77895E-01   -0.94731E-01  1268   0.329E+00    0.127E+00
RMM:   4    -0.755504995446E+02   -0.60101E-02   -0.19653E-01  1286   0.160E+00    0.658E-01
RMM:   5    -0.755548701957E+02   -0.43707E-02   -0.72574E-02  1266   0.963E-01    0.155E-01
RMM:   6    -0.755577893750E+02   -0.29192E-02   -0.33811E-02  1321   0.653E-01    0.568E-02
RMM:   7    -0.755594386917E+02   -0.16493E-02   -0.17466E-02  1276   0.444E-01    0.435E-02
RMM:   8    -0.755602169452E+02   -0.77825E-03   -0.81651E-03  1298   0.316E-01    0.304E-02
RMM:   9    -0.755606407591E+02   -0.42381E-03   -0.46542E-03  1232   0.234E-01    0.106E-02
RMM:  10    -0.755609095319E+02   -0.26877E-03   -0.28426E-03  1203   0.177E-01    0.673E-03
RMM:  11    -0.755610501786E+02   -0.14065E-03   -0.14789E-03  1129   0.134E-01    0.563E-03
RMM:  12    -0.755611387828E+02   -0.88604E-04   -0.93970E-04  1080   0.106E-01    0.560E-03
RMM:  13    -0.755611810278E+02   -0.42245E-04   -0.45591E-04   969   0.837E-02    0.457E-03
RMM:  14    -0.755612022216E+02   -0.21194E-04   -0.24877E-04   838   0.711E-02    0.150E-03
RMM:  15    -0.755612103005E+02   -0.80789E-05   -0.11648E-04   740   0.637E-02
  47 F= -.75561210E+02 E0= -.75561210E+02  d E =-.704465E-01
 curvature:   0.77 expect dE= 0.112E+00 dE for cont linesearch  0.402E-02
 ZBRENT: bracketing found
 ZBRENT: interpolating
 opt :   1.6421  next Energy=   -75.579341 (dE=-0.886E-01)
 bond charge predicted
       N       E                     dE             d eps       ncg     rms          rms(c)
DAV:   1    -0.754854997670E+02    0.75702E-01   -0.25954E+01   768   0.253E+01    0.167E+00
RMM:   2    -0.755652835063E+02   -0.79784E-01   -0.89546E-01  1010   0.428E+00    0.510E-01
RMM:   3    -0.755748425234E+02   -0.95590E-02   -0.14654E-01  1259   0.149E+00    0.394E-01
RMM:   4    -0.755758009171E+02   -0.95839E-03   -0.42913E-02  1255   0.721E-01    0.145E-01
RMM:   5    -0.755773091716E+02   -0.15083E-02   -0.18399E-02  1280   0.446E-01    0.669E-02
RMM:   6    -0.755780122584E+02   -0.70309E-03   -0.80992E-03  1305   0.304E-01    0.209E-02
RMM:   7    -0.755783439784E+02   -0.33172E-03   -0.35866E-03  1209   0.206E-01    0.136E-02
RMM:   8    -0.755785488109E+02   -0.20483E-03   -0.21915E-03  1179   0.155E-01    0.713E-03
RMM:   9    -0.755786438372E+02   -0.95026E-04   -0.99866E-04  1113   0.112E-01    0.463E-03
RMM:  10    -0.755786998590E+02   -0.56022E-04   -0.60210E-04  1022   0.883E-02    0.268E-03
RMM:  11    -0.755787214120E+02   -0.21553E-04   -0.24271E-04   862   0.702E-02    0.119E-03
RMM:  12    -0.755787291158E+02   -0.77038E-05   -0.11009E-04   734   0.619E-02
  48 F= -.75578729E+02 E0= -.75578729E+02  d E =-.879653E-01
 curvature:  -3.05 expect dE=-0.194E+00 dE for cont linesearch -0.118E-04
 trial: gam= 0.58005 g(F)=  0.497E-01 g(S)=  0.139E-01 ort =-0.128E-02 (trialstep = 0.517E+00)
 search vector abs. value=  0.205E+00
 bond charge predicted
       N       E                     dE             d eps       ncg     rms          rms(c)
DAV:   1    -0.755944500153E+02   -0.15729E-01   -0.59611E+00   768   0.117E+01    0.804E-01
RMM:   2    -0.756092630213E+02   -0.14813E-01   -0.19089E-01  1000   0.197E+00    0.316E-01
RMM:   3    -0.756102375003E+02   -0.97448E-03   -0.27738E-02  1250   0.665E-01    0.247E-01
RMM:   4    -0.756100289455E+02    0.20855E-03   -0.74695E-03  1201   0.296E-01    0.104E-01
RMM:   5    -0.756102445540E+02   -0.21561E-03   -0.32925E-03  1196   0.189E-01    0.387E-02
RMM:   6    -0.756103622024E+02   -0.11765E-03   -0.16661E-03  1172   0.134E-01    0.172E-02
RMM:   7    -0.756104267082E+02   -0.64506E-04   -0.80003E-04  1038   0.957E-02    0.785E-03
RMM:   8    -0.756104677178E+02   -0.41010E-04   -0.45075E-04   922   0.750E-02    0.495E-03
RMM:   9    -0.756104821298E+02   -0.14412E-04   -0.16780E-04   748   0.601E-02
  49 F= -.75610482E+02 E0= -.75610482E+02  d E =-.317530E-01
 ZBRENT: can't locate minimum, use default step
 trial-energy change:   -0.031753  1 .order   -0.031759   -0.032542   -0.030975
 step:   2.0697(harm= 10.7447)  dis= 0.06265  next Energy=   -75.916613 (dE=-0.338E+00)
[...]
/home/qz844/.local/lib/python3.8/site-packages/ase/spacegroup/spacegroup.py:433: UserWarning: scaled_positions 1 and 2 are equivalent
  warnings.warn('scaled_positions %d and %d '
looking for new atom positions...
current step : 0.2909
Generate done
 running on   64 total cores
 distrk:  each k-point on   64 cores,    1 groups
 distr:  one band on   16 cores,    4 groups
 using from now: INCAR     
 vasp.5.4.4.18Apr17-6-g9f103f2a35 (build Feb 28 2020 14:15:47) complex          
  
 POSCAR found type information on POSCAR  P  S  Li
 POSCAR found :  3 types and      16 ions
 scaLAPACK will be used
 LDA part: xc-table for Ceperly-Alder, standard interpolation
 POSCAR, INCAR and KPOINTS ok, starting setup
 FFT: planning ...
 WAVECAR not read
 entering main loop
       N       E                     dE             d eps       ncg     rms          rms(c)
DAV:   1     0.508371315459E+03    0.50837E+03   -0.28597E+04   960   0.131E+03
DAV:   2    -0.868183569631E+01   -0.51705E+03   -0.49322E+03  1144   0.308E+02
DAV:   3    -0.710391817735E+02   -0.62357E+02   -0.61827E+02  1312   0.979E+01
DAV:   4    -0.782128732866E+02   -0.71737E+01   -0.71493E+01  1760   0.318E+01
DAV:   5    -0.790284730214E+02   -0.81560E+00   -0.81542E+00  1392   0.732E+00    0.231E+01
RMM:   6    -0.767617942681E+02    0.22667E+01   -0.68671E+00  1145   0.608E+00    0.155E+01
RMM:   7    -0.763394475825E+02    0.42235E+00   -0.24791E+00  1190   0.405E+00    0.485E+00
RMM:   8    -0.762643625665E+02    0.75085E-01   -0.24427E-01  1325   0.154E+00    0.541E-01
RMM:   9    -0.762596104003E+02    0.47522E-02   -0.33477E-02  1415   0.540E-01    0.272E-01
RMM:  10    -0.762603732864E+02   -0.76289E-03   -0.99274E-03  1641   0.217E-01    0.158E-01
RMM:  11    -0.762606765436E+02   -0.30326E-03   -0.30180E-03  1512   0.113E-01    0.516E-02
RMM:  12    -0.762607570015E+02   -0.80458E-04   -0.10765E-03  1309   0.684E-02    0.223E-02
RMM:  13    -0.762607807311E+02   -0.23730E-04   -0.31891E-04  1062   0.464E-02    0.196E-02
RMM:  14    -0.762607853703E+02   -0.46393E-05   -0.86381E-05   953   0.377E-02
   1 F= -.76260785E+02 E0= -.76260785E+02  d E =0.000000E+00
Traceback (most recent call last):
  File "<stdin>", line 17, in <module>
  File "/home/qz844/qz844/test31/sym31/wyckoff1/case1/functions.py", line 1157, in read_energy
    energy = float(line.split()[6])
ValueError: could not convert string to float: '='
Metropolis done
================================================================
step number : 384
/home/qz844/.local/lib/python3.8/site-packages/ase/spacegroup/spacegroup.py:433: UserWarning: scaled_positions 1 and 2 are equivalent
  warnings.warn('scaled_positions %d and %d '
looking for new atom positions...
current step : 0.290875
Generate done
 running on   64 total cores
 distrk:  each k-point on   64 cores,    1 groups
 distr:  one band on   16 cores,    4 groups
 using from now: INCAR     
 vasp.5.4.4.18Apr17-6-g9f103f2a35 (build Feb 28 2020 14:15:47) complex          
  
 POSCAR found type information on POSCAR  P  S  Li
 POSCAR found :  3 types and      16 ions
 scaLAPACK will be used
 LDA part: xc-table for Ceperly-Alder, standard interpolation
 POSCAR, INCAR and KPOINTS ok, starting setup
 FFT: planning ...
 WAVECAR not read
 entering main loop
       N       E                     dE             d eps       ncg     rms          rms(c)
DAV:   1     0.508244008984E+03    0.50824E+03   -0.28604E+04   960   0.131E+03
DAV:   2    -0.658997964317E+01   -0.51483E+03   -0.49037E+03  1136   0.309E+02
DAV:   3    -0.701802903526E+02   -0.63590E+02   -0.62983E+02  1312   0.988E+01
DAV:   4    -0.773893834429E+02   -0.72091E+01   -0.71790E+01  1760   0.322E+01
DAV:   5    -0.782392143983E+02   -0.84983E+00   -0.84964E+00  1400   0.746E+00    0.237E+01
RMM:   6    -0.760858248796E+02    0.21534E+01   -0.69735E+00  1147   0.601E+00    0.158E+01
RMM:   7    -0.756489490237E+02    0.43688E+00   -0.28119E+00  1211   0.424E+00    0.453E+00
RMM:   8    -0.755590985492E+02    0.89850E-01   -0.24046E-01  1355   0.158E+00    0.570E-01
RMM:   9    -0.755549495851E+02    0.41490E-02   -0.38284E-02  1454   0.585E-01    0.273E-01
RMM:  10    -0.755557777625E+02   -0.82818E-03   -0.11987E-02  1647   0.251E-01    0.161E-01
RMM:  11    -0.755561459272E+02   -0.36816E-03   -0.39884E-03  1546   0.139E-01    0.486E-02
RMM:  12    -0.755562894971E+02   -0.14357E-03   -0.17083E-03  1367   0.872E-02    0.249E-02
RMM:  13    -0.755563373127E+02   -0.47816E-04   -0.58883E-04  1137   0.593E-02    0.202E-02
RMM:  14    -0.755563527341E+02   -0.15421E-04   -0.21915E-04  1076   0.469E-02    0.607E-03
RMM:  15    -0.755563602763E+02   -0.75422E-05   -0.11815E-04  1100   0.418E-02
   1 F= -.75556360E+02 E0= -.75556360E+02  d E =0.000000E+00
Traceback (most recent call last):
  File "<stdin>", line 17, in <module>
  File "/home/qz844/qz844/test31/sym31/wyckoff1/case1/functions.py", line 1157, in read_energy
    energy = float(line.split()[6])
ValueError: could not convert string to float: '='
Metropolis done
================================================================
step number : 385
/home/qz844/.local/lib/python3.8/site-packages/ase/spacegroup/spacegroup.py:433: UserWarning: scaled_positions 1 and 2 are equivalent
  warnings.warn('scaled_positions %d and %d '
looking for new atom positions...
current step : 0.29085
Generate done
 running on   64 total cores
 distrk:  each k-point on   64 cores,    1 groups
 distr:  one band on   16 cores,    4 groups
 using from now: INCAR     
 vasp.5.4.4.18Apr17-6-g9f103f2a35 (build Feb 28 2020 14:15:47) complex          
  
 POSCAR found type information on POSCAR  P  S  Li
 POSCAR found :  3 types and      16 ions
 scaLAPACK will be used
 LDA part: xc-table for Ceperly-Alder, standard interpolation
 POSCAR, INCAR and KPOINTS ok, starting setup
 FFT: planning ...
 WAVECAR not read
 entering main loop
       N       E                     dE             d eps       ncg     rms          rms(c)
DAV:   1     0.511725652674E+03    0.51173E+03   -0.28651E+04   968   0.131E+03
DAV:   2    -0.332530328150E+01   -0.51505E+03   -0.49130E+03  1136   0.310E+02
DAV:   3    -0.678749090548E+02   -0.64550E+02   -0.63874E+02  1328   0.992E+01
DAV:   4    -0.751799140299E+02   -0.73050E+01   -0.72619E+01  1776   0.323E+01
DAV:   5    -0.760554816165E+02   -0.87557E+00   -0.87535E+00  1424   0.750E+00    0.245E+01
RMM:   6    -0.736214906146E+02    0.24340E+01   -0.81158E+00  1151   0.640E+00    0.164E+01
RMM:   7    -0.731334932362E+02    0.48800E+00   -0.32943E+00  1237   0.451E+00    0.485E+00
RMM:   8    -0.730426496869E+02    0.90844E-01   -0.27405E-01  1417   0.170E+00    0.643E-01
RMM:   9    -0.730374786005E+02    0.51711E-02   -0.50836E-02  1469   0.694E-01    0.274E-01
RMM:  10    -0.730388379990E+02   -0.13594E-02   -0.16535E-02  1690   0.307E-01    0.161E-01
RMM:  11    -0.730393701016E+02   -0.53210E-03   -0.51608E-03  1585   0.165E-01    0.501E-02
RMM:  12    -0.730395519521E+02   -0.18185E-03   -0.20070E-03  1511   0.102E-01    0.307E-02
RMM:  13    -0.730396049302E+02   -0.52978E-04   -0.61701E-04  1144   0.634E-02    0.190E-02
RMM:  14    -0.730396206508E+02   -0.15721E-04   -0.22903E-04  1230   0.500E-02    0.893E-03
RMM:  15    -0.730396233419E+02   -0.26912E-05   -0.52619E-05   952   0.404E-02
   1 F= -.73039623E+02 E0= -.73039623E+02  d E =0.000000E+00
Traceback (most recent call last):
  File "<stdin>", line 17, in <module>
  File "/home/qz844/qz844/test31/sym31/wyckoff1/case1/functions.py", line 1157, in read_energy
    energy = float(line.split()[6])
ValueError: could not convert string to float: '='
Metropolis done
================================================================
step number : 386
/home/qz844/.local/lib/python3.8/site-packages/ase/spacegroup/spacegroup.py:433: UserWarning: scaled_positions 1 and 2 are equivalent
  warnings.warn('scaled_positions %d and %d '
looking for new atom positions...
current step : 0.290825
Generate done
 running on   64 total cores
 distrk:  each k-point on   64 cores,    1 groups
 distr:  one band on   16 cores,    4 groups
 using from now: INCAR     
 vasp.5.4.4.18Apr17-6-g9f103f2a35 (build Feb 28 2020 14:15:47) complex          
  
 POSCAR found type information on POSCAR  P  S  Li
 POSCAR found :  3 types and      16 ions
 scaLAPACK will be used
 LDA part: xc-table for Ceperly-Alder, standard interpolation
 POSCAR, INCAR and KPOINTS ok, starting setup
 FFT: planning ...
 WAVECAR not read
 entering main loop
       N       E                     dE             d eps       ncg     rms          rms(c)
DAV:   1     0.519199662120E+03    0.51920E+03   -0.28665E+04   960   0.131E+03
DAV:   2    -0.735138265384E+00   -0.51993E+03   -0.49629E+03  1120   0.312E+02
DAV:   3    -0.662229923531E+02   -0.65488E+02   -0.64670E+02  1328   0.100E+02
DAV:   4    -0.738634958296E+02   -0.76405E+01   -0.75899E+01  1776   0.326E+01
DAV:   5    -0.748081043409E+02   -0.94461E+00   -0.94433E+00  1416   0.776E+00    0.252E+01
RMM:   6    -0.720951588411E+02    0.27129E+01   -0.90319E+00  1133   0.675E+00    0.168E+01
RMM:   7    -0.715418007146E+02    0.55336E+00   -0.37915E+00  1226   0.476E+00    0.504E+00
RMM:   8    -0.714347412144E+02    0.10706E+00   -0.29643E-01  1407   0.177E+00    0.688E-01
RMM:   9    -0.714288106981E+02    0.59305E-02   -0.51596E-02  1451   0.700E-01    0.286E-01
RMM:  10    -0.714300393813E+02   -0.12287E-02   -0.14526E-02  1668   0.295E-01    0.158E-01
RMM:  11    -0.714305700936E+02   -0.53071E-03   -0.44056E-03  1578   0.154E-01    0.475E-02
RMM:  12    -0.714307130244E+02   -0.14293E-03   -0.15965E-03  1541   0.966E-02    0.271E-02
RMM:  13    -0.714307601286E+02   -0.47104E-04   -0.55489E-04  1190   0.614E-02    0.166E-02
RMM:  14    -0.714307737124E+02   -0.13584E-04   -0.18769E-04  1186   0.486E-02
   1 F= -.71430774E+02 E0= -.71430774E+02  d E =0.000000E+00
Traceback (most recent call last):
  File "<stdin>", line 17, in <module>
  File "/home/qz844/qz844/test31/sym31/wyckoff1/case1/functions.py", line 1157, in read_energy
    energy = float(line.split()[6])
ValueError: could not convert string to float: '='
Metropolis done
================================================================
step number : 387
/home/qz844/.local/lib/python3.8/site-packages/ase/spacegroup/spacegroup.py:433: UserWarning: scaled_positions 1 and 2 are equivalent
  warnings.warn('scaled_positions %d and %d '
looking for new atom positions...
current step : 0.2908
Generate done
 running on   64 total cores
 distrk:  each k-point on   64 cores,    1 groups
 distr:  one band on   16 cores,    4 groups
 using from now: INCAR     
 vasp.5.4.4.18Apr17-6-g9f103f2a35 (build Feb 28 2020 14:15:47) complex          
  
 POSCAR found type information on POSCAR  P  S  Li
 POSCAR found :  3 types and      16 ions
 scaLAPACK will be used
 LDA part: xc-table for Ceperly-Alder, standard interpolation
 POSCAR, INCAR and KPOINTS ok, starting setup
 FFT: planning ...
 WAVECAR not read
 entering main loop
       N       E                     dE             d eps       ncg     rms          rms(c)
DAV:   1     0.526874052548E+03    0.52687E+03   -0.28641E+04   960   0.131E+03
DAV:   2     0.648537156464E+01   -0.52039E+03   -0.49720E+03  1120   0.313E+02
DAV:   3    -0.609478582327E+02   -0.67433E+02   -0.66237E+02  1352   0.101E+02
DAV:   4    -0.694729638620E+02   -0.85251E+01   -0.84350E+01  1760   0.340E+01
DAV:   5    -0.704573952441E+02   -0.98443E+00   -0.98411E+00  1416   0.831E+00    0.260E+01
RMM:   6    -0.677486398427E+02    0.27088E+01   -0.85914E+00  1162   0.679E+00    0.172E+01
RMM:   7    -0.672306888021E+02    0.51795E+00   -0.43852E+00  1243   0.513E+00    0.470E+00
RMM:   8    -0.670939884540E+02    0.13670E+00   -0.29379E-01  1379   0.181E+00    0.716E-01
RMM:   9    -0.670883998464E+02    0.55886E-02   -0.50984E-02  1519   0.680E-01    0.345E-01
RMM:  10    -0.670893956270E+02   -0.99578E-03   -0.12853E-02  1647   0.293E-01    0.168E-01
RMM:  11    -0.670898925363E+02   -0.49691E-03   -0.42448E-03  1577   0.163E-01    0.345E-02
RMM:  12    -0.670900498666E+02   -0.15733E-03   -0.17995E-03  1564   0.103E-01    0.192E-02
RMM:  13    -0.670901093254E+02   -0.59459E-04   -0.70956E-04  1276   0.684E-02    0.105E-02
RMM:  14    -0.670901326296E+02   -0.23304E-04   -0.29397E-04  1160   0.514E-02    0.393E-03
RMM:  15    -0.670901395720E+02   -0.69424E-05   -0.10051E-04   938   0.421E-02
   1 F= -.67090140E+02 E0= -.67090140E+02  d E =0.000000E+00
Traceback (most recent call last):
  File "<stdin>", line 17, in <module>
  File "/home/qz844/qz844/test31/sym31/wyckoff1/case1/functions.py", line 1157, in read_energy
    energy = float(line.split()[6])
ValueError: could not convert string to float: '='
Metropolis done
================================================================
step number : 388
/home/qz844/.local/lib/python3.8/site-packages/ase/spacegroup/spacegroup.py:433: UserWarning: scaled_positions 1 and 2 are equivalent
  warnings.warn('scaled_positions %d and %d '
looking for new atom positions...
current step : 0.290775
Generate done
 running on   64 total cores
 distrk:  each k-point on   64 cores,    1 groups
 distr:  one band on   16 cores,    4 groups
 using from now: INCAR     
 vasp.5.4.4.18Apr17-6-g9f103f2a35 (build Feb 28 2020 14:15:47) complex          
  
 POSCAR found type information on POSCAR  P  S  Li
 POSCAR found :  3 types and      16 ions
 scaLAPACK will be used
 LDA part: xc-table for Ceperly-Alder, standard interpolation
 POSCAR, INCAR and KPOINTS ok, starting setup
 FFT: planning ...
 WAVECAR not read
 entering main loop
       N       E                     dE             d eps       ncg     rms          rms(c)
DAV:   1     0.535504244048E+03    0.53550E+03   -0.28680E+04   960   0.131E+03
DAV:   2     0.132839074884E+02   -0.52222E+03   -0.49986E+03  1120   0.313E+02
DAV:   3    -0.552159189955E+02   -0.68500E+02   -0.66723E+02  1368   0.101E+02
DAV:   4    -0.648244454778E+02   -0.96085E+01   -0.94731E+01  1808   0.355E+01
DAV:   5    -0.658388558285E+02   -0.10144E+01   -0.10141E+01  1416   0.875E+00    0.264E+01
RMM:   6    -0.628976981587E+02    0.29412E+01   -0.91069E+00  1145   0.713E+00    0.176E+01
RMM:   7    -0.623909391470E+02    0.50676E+00   -0.46470E+00  1213   0.531E+00    0.503E+00
RMM:   8    -0.622186748988E+02    0.17226E+00   -0.29434E-01  1343   0.175E+00    0.852E-01
RMM:   9    -0.622076076615E+02    0.11067E-01   -0.57351E-02  1467   0.665E-01    0.404E-01
RMM:  10    -0.622071187085E+02    0.48895E-03   -0.99739E-03  1557   0.291E-01    0.251E-01
RMM:  11    -0.622076767376E+02   -0.55803E-03   -0.36282E-03  1526   0.159E-01    0.814E-02
RMM:  12    -0.622077021581E+02   -0.25420E-04   -0.18855E-03  1432   0.114E-01    0.279E-02
RMM:  13    -0.622077155819E+02   -0.13424E-04   -0.58369E-04  1411   0.654E-02    0.134E-02
RMM:  14    -0.622077263797E+02   -0.10798E-04   -0.14428E-04  1001   0.425E-02
   1 F= -.62207726E+02 E0= -.62207726E+02  d E =0.000000E+00
Traceback (most recent call last):
  File "<stdin>", line 17, in <module>
  File "/home/qz844/qz844/test31/sym31/wyckoff1/case1/functions.py", line 1157, in read_energy
    energy = float(line.split()[6])
ValueError: could not convert string to float: '='
Metropolis done
================================================================
step number : 389
/home/qz844/.local/lib/python3.8/site-packages/ase/spacegroup/spacegroup.py:433: UserWarning: scaled_positions 1 and 2 are equivalent
  warnings.warn('scaled_positions %d and %d '
looking for new atom positions...
current step : 0.29075
Generate done
 running on   64 total cores
 distrk:  each k-point on   64 cores,    1 groups
 distr:  one band on   16 cores,    4 groups
 using from now: INCAR     
 vasp.5.4.4.18Apr17-6-g9f103f2a35 (build Feb 28 2020 14:15:47) complex          
  
 POSCAR found type information on POSCAR  P  S  Li
 POSCAR found :  3 types and      16 ions
 scaLAPACK will be used
 LDA part: xc-table for Ceperly-Alder, standard interpolation
 POSCAR, INCAR and KPOINTS ok, starting setup
 FFT: planning ...
 WAVECAR not read
 entering main loop
       N       E                     dE             d eps       ncg     rms          rms(c)
DAV:   1     0.523186530295E+03    0.52319E+03   -0.28681E+04   960   0.130E+03
DAV:   2     0.101429415535E+02   -0.51304E+03   -0.49048E+03  1120   0.311E+02
DAV:   3    -0.570037878896E+02   -0.67147E+02   -0.65795E+02  1344   0.996E+01
DAV:   4    -0.651688544444E+02   -0.81651E+01   -0.80313E+01  1840   0.335E+01
DAV:   5    -0.661244344424E+02   -0.95558E+00   -0.95521E+00  1424   0.819E+00    0.265E+01
RMM:   6    -0.636583662708E+02    0.24661E+01   -0.72647E+00  1215   0.639E+00    0.173E+01
RMM:   7    -0.632267612401E+02    0.43161E+00   -0.38966E+00  1261   0.494E+00    0.421E+00
RMM:   8    -0.630968506082E+02    0.12991E+00   -0.27938E-01  1387   0.178E+00    0.851E-01
RMM:   9    -0.630902974692E+02    0.65531E-02   -0.54539E-02  1601   0.693E-01    0.438E-01
RMM:  10    -0.630909237997E+02   -0.62633E-03   -0.13410E-02  1629   0.340E-01    0.221E-01
RMM:  11    -0.630915136198E+02   -0.58982E-03   -0.53754E-03  1595   0.204E-01    0.547E-02
RMM:  12    -0.630917302387E+02   -0.21662E-03   -0.27482E-03  1562   0.142E-01    0.241E-02
RMM:  13    -0.630918446014E+02   -0.11436E-03   -0.13772E-03  1496   0.100E-01    0.142E-02
RMM:  14    -0.630919095693E+02   -0.64968E-04   -0.71773E-04  1130   0.739E-02    0.932E-03
RMM:  15    -0.630919415086E+02   -0.31939E-04   -0.36570E-04  1135   0.617E-02    0.351E-03
RMM:  16    -0.630919596966E+02   -0.18188E-04   -0.21434E-04  1060   0.529E-02    0.305E-03
RMM:  17    -0.630919693378E+02   -0.96412E-05   -0.12245E-04   942   0.465E-02
   1 F= -.63091969E+02 E0= -.63091969E+02  d E =0.000000E+00
Traceback (most recent call last):
  File "<stdin>", line 17, in <module>
  File "/home/qz844/qz844/test31/sym31/wyckoff1/case1/functions.py", line 1157, in read_energy
    energy = float(line.split()[6])
ValueError: could not convert string to float: '='
Metropolis done
================================================================
step number : 390
/home/qz844/.local/lib/python3.8/site-packages/ase/spacegroup/spacegroup.py:433: UserWarning: scaled_positions 1 and 2 are equivalent
  warnings.warn('scaled_positions %d and %d '
looking for new atom positions...
current step : 0.290725
Generate done
 running on   64 total cores
 distrk:  each k-point on   64 cores,    1 groups
 distr:  one band on   16 cores,    4 groups
 using from now: INCAR     
 vasp.5.4.4.18Apr17-6-g9f103f2a35 (build Feb 28 2020 14:15:47) complex          
  
 POSCAR found type information on POSCAR  P  S  Li
 POSCAR found :  3 types and      16 ions
 scaLAPACK will be used
 LDA part: xc-table for Ceperly-Alder, standard interpolation
 POSCAR, INCAR and KPOINTS ok, starting setup
 FFT: planning ...
 WAVECAR not read
 entering main loop
       N       E                     dE             d eps       ncg     rms          rms(c)
DAV:   1     0.520070837471E+03    0.52007E+03   -0.28718E+04   960   0.130E+03
DAV:   2     0.756851562722E+01   -0.51250E+03   -0.48971E+03  1120   0.310E+02
DAV:   3    -0.586975877076E+02   -0.66266E+02   -0.64902E+02  1368   0.993E+01
DAV:   4    -0.667524480371E+02   -0.80549E+01   -0.79035E+01  1824   0.332E+01
DAV:   5    -0.677147537204E+02   -0.96231E+00   -0.96198E+00  1440   0.827E+00    0.266E+01
RMM:   6    -0.655256448424E+02    0.21891E+01   -0.64994E+00  1182   0.605E+00    0.169E+01
RMM:   7    -0.651623527523E+02    0.36329E+00   -0.41775E+00  1234   0.503E+00    0.355E+00
RMM:   8    -0.649473435049E+02    0.21501E+00   -0.21079E-01  1399   0.165E+00    0.956E-01
srun: Job step aborted: Waiting up to 32 seconds for job step to finish.
slurmstepd-compute-11-27: error: *** STEP 2096339.410 ON compute-11-27 CANCELLED AT 2022-04-28T04:16:48 ***
slurmstepd-compute-11-27: error: *** JOB 2096339 ON compute-11-27 CANCELLED AT 2022-04-28T04:16:48 ***
