  16  16   0   0
  0.1798564E+02  0.7667166E-09  0.6222204E-09  0.6032077E-09  0.5000000E-15
  1.000000000000000E-004
  CAR 
 unknown system                          
     11.23833869    -43.65844842  301      2.31761079      1.00000000
    -43.658  0.0000E+00  0.0000E+00
    -43.475  0.0000E+00  0.0000E+00
    -43.292  0.0000E+00  0.0000E+00
    -43.109  0.0000E+00  0.0000E+00
    -42.926  0.0000E+00  0.0000E+00
    -42.744  0.0000E+00  0.0000E+00
    -42.561  0.0000E+00  0.0000E+00
    -42.378  0.0000E+00  0.0000E+00
    -42.195  0.0000E+00  0.0000E+00
    -42.012  0.0000E+00  0.0000E+00
    -41.829  0.0000E+00  0.0000E+00
    -41.646  0.0000E+00  0.0000E+00
    -41.463  0.0000E+00  0.0000E+00
    -41.280  0.0000E+00  0.0000E+00
    -41.097  0.0000E+00  0.4000E+01
    -40.914  0.0000E+00  0.4000E+01
    -40.731  0.0000E+00  0.4000E+01
    -40.548  0.0000E+00  0.1200E+02
    -40.365  0.0000E+00  0.1200E+02
    -40.182  0.0000E+00  0.1200E+02
    -39.999  0.0000E+00  0.1200E+02
    -39.816  0.0000E+00  0.1200E+02
    -39.633  0.0000E+00  0.1200E+02
    -39.450  0.0000E+00  0.1200E+02
    -39.267  0.0000E+00  0.1200E+02
    -39.084  0.0000E+00  0.1200E+02
    -38.901  0.0000E+00  0.1200E+02
    -38.718  0.0000E+00  0.1200E+02
    -38.535  0.0000E+00  0.1200E+02
    -38.352  0.0000E+00  0.1200E+02
    -38.169  0.0000E+00  0.1200E+02
    -37.986  0.0000E+00  0.1200E+02
    -37.803  0.0000E+00  0.1200E+02
    -37.620  0.0000E+00  0.1200E+02
    -37.437  0.0000E+00  0.1200E+02
    -37.254  0.0000E+00  0.1200E+02
    -37.071  0.0000E+00  0.1200E+02
    -36.888  0.0000E+00  0.1200E+02
    -36.705  0.0000E+00  0.1200E+02
    -36.522  0.0000E+00  0.1200E+02
    -36.339  0.0000E+00  0.1200E+02
    -36.156  0.0000E+00  0.1200E+02
    -35.973  0.0000E+00  0.1200E+02
    -35.790  0.0000E+00  0.1200E+02
    -35.607  0.0000E+00  0.1200E+02
    -35.424  0.0000E+00  0.1200E+02
    -35.241  0.0000E+00  0.1200E+02
    -35.058  0.0000E+00  0.1200E+02
    -34.875  0.0000E+00  0.1200E+02
    -34.692  0.0000E+00  0.1200E+02
    -34.509  0.0000E+00  0.1200E+02
    -34.326  0.0000E+00  0.1200E+02
    -34.143  0.0000E+00  0.1200E+02
    -33.960  0.0000E+00  0.1200E+02
    -33.777  0.0000E+00  0.1200E+02
    -33.594  0.0000E+00  0.1200E+02
    -33.411  0.0000E+00  0.1200E+02
    -33.228  0.0000E+00  0.1200E+02
    -33.045  0.0000E+00  0.1200E+02
    -32.862  0.0000E+00  0.1200E+02
    -32.679  0.0000E+00  0.1200E+02
    -32.496  0.0000E+00  0.1200E+02
    -32.313  0.0000E+00  0.1200E+02
    -32.130  0.0000E+00  0.1200E+02
    -31.947  0.0000E+00  0.1200E+02
    -31.764  0.0000E+00  0.1200E+02
    -31.581  0.0000E+00  0.1200E+02
    -31.398  0.0000E+00  0.1200E+02
    -31.215  0.0000E+00  0.1200E+02
    -31.032  0.0000E+00  0.1200E+02
    -30.849  0.0000E+00  0.1200E+02
    -30.666  0.0000E+00  0.1200E+02
    -30.483  0.0000E+00  0.1200E+02
    -30.300  0.0000E+00  0.1200E+02
    -30.117  0.0000E+00  0.1200E+02
    -29.934  0.0000E+00  0.1200E+02
    -29.751  0.0000E+00  0.1200E+02
    -29.568  0.0000E+00  0.1200E+02
    -29.385  0.0000E+00  0.1200E+02
    -29.202  0.0000E+00  0.1200E+02
    -29.019  0.0000E+00  0.1200E+02
    -28.836  0.0000E+00  0.1200E+02
    -28.653  0.0000E+00  0.1200E+02
    -28.470  0.0000E+00  0.1200E+02
    -28.287  0.0000E+00  0.1200E+02
    -28.104  0.0000E+00  0.1200E+02
    -27.921  0.0000E+00  0.1200E+02
    -27.738  0.0000E+00  0.1200E+02
    -27.555  0.0000E+00  0.1200E+02
    -27.372  0.0000E+00  0.1200E+02
    -27.189  0.0000E+00  0.1200E+02
    -27.006  0.0000E+00  0.1200E+02
    -26.823  0.0000E+00  0.1200E+02
    -26.640  0.0000E+00  0.1200E+02
    -26.457  0.0000E+00  0.1200E+02
    -26.274  0.0000E+00  0.1200E+02
    -26.091  0.0000E+00  0.1200E+02
    -25.908  0.0000E+00  0.1200E+02
    -25.725  0.0000E+00  0.1200E+02
    -25.543  0.0000E+00  0.1200E+02
    -25.360  0.0000E+00  0.1200E+02
    -25.177  0.0000E+00  0.1200E+02
    -24.994  0.0000E+00  0.1200E+02
    -24.811  0.0000E+00  0.1200E+02
    -24.628  0.0000E+00  0.1200E+02
    -24.445  0.0000E+00  0.1200E+02
    -24.262  0.0000E+00  0.1200E+02
    -24.079  0.0000E+00  0.1200E+02
    -23.896  0.0000E+00  0.1200E+02
    -23.713  0.0000E+00  0.1200E+02
    -23.530  0.0000E+00  0.1200E+02
    -23.347  0.0000E+00  0.1200E+02
    -23.164  0.0000E+00  0.1200E+02
    -22.981  0.0000E+00  0.1200E+02
    -22.798  0.0000E+00  0.1200E+02
    -22.615  0.0000E+00  0.1200E+02
    -22.432  0.0000E+00  0.1200E+02
    -22.249  0.0000E+00  0.1200E+02
    -22.066  0.0000E+00  0.1200E+02
    -21.883  0.0000E+00  0.1200E+02
    -21.700  0.0000E+00  0.1200E+02
    -21.517  0.0000E+00  0.1200E+02
    -21.334  0.0000E+00  0.1200E+02
    -21.151  0.0000E+00  0.1200E+02
    -20.968  0.0000E+00  0.1200E+02
    -20.785  0.0000E+00  0.1200E+02
    -20.602  0.0000E+00  0.1200E+02
    -20.419  0.0000E+00  0.1200E+02
    -20.236  0.0000E+00  0.1200E+02
    -20.053  0.0000E+00  0.1200E+02
    -19.870  0.0000E+00  0.1200E+02
    -19.687  0.0000E+00  0.1200E+02
    -19.504  0.0000E+00  0.1200E+02
    -19.321  0.0000E+00  0.1200E+02
    -19.138  0.0000E+00  0.1200E+02
    -18.955  0.0000E+00  0.1200E+02
    -18.772  0.0000E+00  0.1200E+02
    -18.589  0.0000E+00  0.1200E+02
    -18.406  0.0000E+00  0.1200E+02
    -18.223  0.0000E+00  0.1200E+02
    -18.040  0.0000E+00  0.1200E+02
    -17.857  0.0000E+00  0.1200E+02
    -17.674  0.0000E+00  0.1200E+02
    -17.491  0.0000E+00  0.1200E+02
    -17.308  0.0000E+00  0.1200E+02
    -17.125  0.0000E+00  0.1200E+02
    -16.942  0.0000E+00  0.1200E+02
    -16.759  0.0000E+00  0.1200E+02
    -16.576  0.0000E+00  0.1200E+02
    -16.393  0.0000E+00  0.1200E+02
    -16.210  0.0000E+00  0.1200E+02
    -16.027  0.0000E+00  0.1200E+02
    -15.844  0.0000E+00  0.1200E+02
    -15.661  0.0000E+00  0.1200E+02
    -15.478  0.0000E+00  0.1200E+02
    -15.295  0.0000E+00  0.1200E+02
    -15.112  0.0000E+00  0.1200E+02
    -14.929  0.0000E+00  0.1200E+02
    -14.746  0.0000E+00  0.1200E+02
    -14.563  0.0000E+00  0.1200E+02
    -14.380  0.0000E+00  0.1200E+02
    -14.197  0.0000E+00  0.1200E+02
    -14.014  0.0000E+00  0.1200E+02
    -13.831  0.0000E+00  0.1200E+02
    -13.648  0.0000E+00  0.1200E+02
    -13.465  0.0000E+00  0.1200E+02
    -13.282  0.0000E+00  0.1200E+02
    -13.099  0.0000E+00  0.1200E+02
    -12.916  0.0000E+00  0.1200E+02
    -12.733  0.0000E+00  0.1200E+02
    -12.550  0.3243E+02  0.1338E+02
    -12.367  0.0000E+00  0.1600E+02
    -12.184  0.0000E+00  0.1600E+02
    -12.001  0.0000E+00  0.1600E+02
    -11.818  0.0000E+00  0.1600E+02
    -11.635  0.0000E+00  0.1600E+02
    -11.452  0.0000E+00  0.1600E+02
    -11.269  0.0000E+00  0.1600E+02
    -11.086  0.0000E+00  0.1600E+02
    -10.903  0.0000E+00  0.1600E+02
    -10.720  0.0000E+00  0.1600E+02
    -10.537  0.0000E+00  0.1600E+02
    -10.354  0.0000E+00  0.1600E+02
    -10.171  0.0000E+00  0.1600E+02
     -9.988  0.0000E+00  0.1600E+02
     -9.805  0.0000E+00  0.1600E+02
     -9.622  0.2674E+02  0.1770E+02
     -9.439  0.3084E+02  0.2239E+02
     -9.256  0.1357E+02  0.2771E+02
     -9.073  0.0000E+00  0.2800E+02
     -8.890  0.0000E+00  0.2800E+02
     -8.707  0.0000E+00  0.2800E+02
     -8.525  0.0000E+00  0.2800E+02
     -8.342  0.0000E+00  0.2800E+02
     -8.159  0.0000E+00  0.2800E+02
     -7.976  0.0000E+00  0.2800E+02
     -7.793  0.0000E+00  0.2800E+02
     -7.610  0.0000E+00  0.2800E+02
     -7.427  0.0000E+00  0.2800E+02
     -7.244  0.0000E+00  0.2800E+02
     -7.061  0.0000E+00  0.2800E+02
     -6.878  0.0000E+00  0.2800E+02
     -6.695  0.0000E+00  0.2800E+02
     -6.512  0.0000E+00  0.2800E+02
     -6.329  0.0000E+00  0.2800E+02
     -6.146  0.0000E+00  0.2800E+02
     -5.963  0.0000E+00  0.2800E+02
     -5.780  0.0000E+00  0.2800E+02
     -5.597  0.1024E+00  0.2800E+02
     -5.414  0.4313E+01  0.2825E+02
     -5.231  0.6824E+01  0.2975E+02
     -5.048  0.5410E-01  0.3200E+02
     -4.865  0.0000E+00  0.3200E+02
     -4.682  0.0000E+00  0.3200E+02
     -4.499  0.0000E+00  0.3200E+02
     -4.316  0.0000E+00  0.3200E+02
     -4.133  0.0000E+00  0.3200E+02
     -3.950  0.0000E+00  0.3200E+02
     -3.767  0.0000E+00  0.3200E+02
     -3.584  0.0000E+00  0.3200E+02
     -3.401  0.0000E+00  0.3200E+02
     -3.218  0.0000E+00  0.3200E+02
     -3.035  0.0000E+00  0.3200E+02
     -2.852  0.0000E+00  0.3200E+02
     -2.669  0.0000E+00  0.3200E+02
     -2.486  0.1772E+02  0.3344E+02
     -2.303  0.1059E+02  0.3663E+02
     -2.120  0.2578E+02  0.4094E+02
     -1.937  0.0000E+00  0.4400E+02
     -1.754  0.0000E+00  0.4400E+02
     -1.571  0.0000E+00  0.4400E+02
     -1.388  0.0000E+00  0.4400E+02
     -1.205  0.0000E+00  0.4400E+02
     -1.022  0.0000E+00  0.4400E+02
     -0.839  0.0000E+00  0.4400E+02
     -0.656  0.0000E+00  0.4400E+02
     -0.473  0.0000E+00  0.4400E+02
     -0.290  0.0000E+00  0.4400E+02
     -0.107  0.1663E+02  0.4674E+02
      0.076  0.1549E+02  0.4965E+02
      0.259  0.6936E+01  0.5179E+02
      0.442  0.1091E+02  0.5323E+02
      0.625  0.9878E+01  0.5517E+02
      0.808  0.1518E+01  0.5606E+02
      0.991  0.2910E+02  0.5877E+02
      1.174  0.1996E+02  0.6122E+02
      1.357  0.6935E+01  0.6340E+02
      1.540  0.1826E+02  0.6498E+02
      1.723  0.1233E+02  0.6814E+02
      1.906  0.2969E+02  0.7119E+02
      2.089  0.2829E+02  0.7488E+02
      2.272  0.0000E+00  0.7600E+02
      2.455  0.0000E+00  0.7600E+02
      2.638  0.0000E+00  0.7600E+02
      2.821  0.0000E+00  0.7600E+02
      3.004  0.0000E+00  0.7600E+02
      3.187  0.0000E+00  0.7600E+02
      3.370  0.0000E+00  0.7600E+02
      3.553  0.0000E+00  0.7600E+02
      3.736  0.0000E+00  0.7600E+02
      3.919  0.0000E+00  0.7600E+02
      4.102  0.0000E+00  0.7600E+02
      4.285  0.0000E+00  0.7600E+02
      4.468  0.0000E+00  0.7600E+02
      4.651  0.0000E+00  0.7600E+02
      4.834  0.0000E+00  0.7600E+02
      5.017  0.0000E+00  0.7600E+02
      5.200  0.2878E+01  0.7634E+02
      5.383  0.5552E+01  0.7706E+02
      5.566  0.4097E+01  0.7807E+02
      5.749  0.4796E+01  0.7902E+02
      5.932  0.2787E+01  0.7971E+02
      6.115  0.9520E+00  0.8006E+02
      6.298  0.3137E+01  0.8041E+02
      6.481  0.3605E+01  0.8234E+02
      6.664  0.1410E+01  0.8410E+02
      6.847  0.1133E+02  0.8603E+02
      7.030  0.1946E+02  0.8822E+02
      7.213  0.6163E+01  0.9040E+02
      7.396  0.0000E+00  0.9200E+02
      7.579  0.0000E+00  0.9200E+02
      7.762  0.0000E+00  0.9200E+02
      7.945  0.0000E+00  0.9200E+02
      8.128  0.8326E+01  0.9224E+02
      8.311  0.2620E+01  0.9395E+02
      8.493  0.8075E+00  0.9404E+02
      8.676  0.3690E+01  0.9590E+02
      8.859  0.0000E+00  0.9600E+02
      9.042  0.0000E+00  0.9600E+02
      9.225  0.0000E+00  0.9600E+02
      9.408  0.0000E+00  0.9600E+02
      9.591  0.0000E+00  0.9600E+02
      9.774  0.0000E+00  0.9600E+02
      9.957  0.0000E+00  0.9600E+02
     10.140  0.0000E+00  0.9600E+02
     10.323  0.0000E+00  0.9600E+02
     10.506  0.0000E+00  0.9600E+02
     10.689  0.0000E+00  0.9600E+02
     10.872  0.0000E+00  0.9600E+02
     11.055  0.0000E+00  0.9600E+02
     11.238  0.0000E+00  0.9600E+02
