       N       E                     dE             d eps       ncg     rms          rms(c)
DAV:   1     0.504445135437E+03    0.50445E+03   -0.28575E+04   768   0.131E+03
DAV:   2    -0.872418707997E+01   -0.51317E+03   -0.48861E+03   912   0.308E+02
DAV:   3    -0.721334080468E+02   -0.63409E+02   -0.62886E+02  1072   0.980E+01
DAV:   4    -0.792710448148E+02   -0.71376E+01   -0.71165E+01  1424   0.313E+01
DAV:   5    -0.801074379969E+02   -0.83639E+00   -0.83626E+00  1088   0.737E+00    0.219E+01
RMM:   6    -0.777827884082E+02    0.23246E+01   -0.70227E+00   897   0.610E+00    0.148E+01
RMM:   7    -0.773649976864E+02    0.41779E+00   -0.20613E+00   983   0.374E+00    0.499E+00
RMM:   8    -0.773003305814E+02    0.64667E-01   -0.24089E-01  1006   0.146E+00    0.492E-01
RMM:   9    -0.772948328987E+02    0.54977E-02   -0.27041E-02  1165   0.498E-01    0.273E-01
RMM:  10    -0.772953654327E+02   -0.53253E-03   -0.74117E-03  1228   0.214E-01    0.122E-01
RMM:  11    -0.772956430620E+02   -0.27763E-03   -0.30990E-03  1216   0.122E-01    0.227E-02
RMM:  12    -0.772957530250E+02   -0.10996E-03   -0.13904E-03  1132   0.791E-02    0.136E-02
RMM:  13    -0.772957999718E+02   -0.46947E-04   -0.56977E-04   766   0.529E-02    0.119E-02
RMM:  14    -0.772958173740E+02   -0.17402E-04   -0.22580E-04   768   0.452E-02    0.721E-03
RMM:  15    -0.772958279162E+02   -0.10542E-04   -0.15755E-04   857   0.407E-02
   1 F= -.77295828E+02 E0= -.77295828E+02  d E =0.000000E+00
