<?xml version="1.0" encoding="ISO-8859-1"?>
<modeling>
 <generator>
  <i name="program" type="string">vasp </i>
  <i name="version" type="string">5.4.4.18Apr17-6-g9f103f2a35  </i>
  <i name="subversion" type="string">(build Feb 28 2020 14:15:47) complex            parallel </i>
  <i name="platform" type="string">LinuxIFC </i>
  <i name="date" type="string">2022 08 06 </i>
  <i name="time" type="string">21:53:35 </i>
 </generator>
 <incar>
  <i type="int" name="ISTART">     0</i>
  <i type="string" name="PREC">accurate</i>
  <i type="string" name="ALGO"> FAST</i>
  <i type="int" name="ISPIN">     1</i>
  <i type="int" name="ICHARG">     2</i>
  <i type="int" name="INIWAV">     1</i>
  <i type="int" name="NELM">   100</i>
  <i type="int" name="IBRION">     2</i>
  <i name="EDIFF">      0.00002000</i>
  <i name="EDIFFG">      0.00020000</i>
  <i type="int" name="NSW">     0</i>
  <i type="int" name="ISIF">     7</i>
  <i name="ENCUT">    420.00000000</i>
  <i type="string" name="LREAL"> AUTO</i>
  <i type="int" name="ISMEAR">    -5</i>
  <i type="logical" name="LWAVE"> F  </i>
  <i type="logical" name="LCHARG"> F  </i>
  <v type="int" name="KPOINT_BSE">    -1     0     0     0</v>
  <i type="int" name="NELM">   100</i>
 </incar>
 <structure name="primitive_cell" >
  <crystal>
   <varray name="basis" >
    <v>       7.66716623       0.00000000       0.00000000 </v>
    <v>       0.00000000       6.22220380       0.00000000 </v>
    <v>       0.00000000       0.00000000       6.03207693 </v>
   </varray>
   <i name="volume">    287.77030882 </i>
   <varray name="rec_basis" >
    <v>       0.13042628       0.00000000       0.00000000 </v>
    <v>       0.00000000       0.16071476       0.00000000 </v>
    <v>       0.00000000       0.00000000       0.16578038 </v>
   </varray>
  </crystal>
  <varray name="positions" >
   <v>       0.00000000       0.33089338       0.29831610 </v>
   <v>       0.00000000      -0.36113312       0.19662437 </v>
   <v>      -0.21818844       0.17625609       0.19109483 </v>
   <v>       0.21818844       0.17625609       0.19109483 </v>
   <v>       0.00000000       0.30042990      -0.36369543 </v>
   <v>       0.00000000      -0.34119611      -0.22822515 </v>
   <v>       0.24755494      -0.18011445       0.30212647 </v>
   <v>      -0.24755494      -0.18011445       0.30212647 </v>
   <v>       0.25244506       0.18011445      -0.19787353 </v>
   <v>      -0.25244506       0.18011445      -0.19787353 </v>
   <v>       0.50000000       0.34119611       0.27177485 </v>
   <v>       0.28181156      -0.17625609      -0.30890517 </v>
   <v>      -0.28181156      -0.17625609      -0.30890517 </v>
   <v>       0.50000000       0.36113312      -0.30337563 </v>
   <v>       0.50000000      -0.30042990       0.13630457 </v>
   <v>       0.50000000      -0.33089338      -0.20168390 </v>
  </varray>
 </structure>
 <varray name="primitive_index" >
  <v type="int" >        1 </v>
  <v type="int" >        7 </v>
  <v type="int" >        6 </v>
  <v type="int" >        3 </v>
  <v type="int" >        9 </v>
  <v type="int" >       11 </v>
  <v type="int" >       14 </v>
  <v type="int" >       15 </v>
  <v type="int" >       13 </v>
  <v type="int" >       16 </v>
  <v type="int" >       12 </v>
  <v type="int" >        4 </v>
  <v type="int" >        5 </v>
  <v type="int" >        8 </v>
  <v type="int" >       10 </v>
  <v type="int" >        2 </v>
 </varray>
 <kpoints>
  <generation param="Monkhorst-Pack">
   <v type="int" name="divisions">       3        3        3 </v>
   <v name="usershift">      0.00000000       0.00000000       0.00000000 </v>
   <v name="genvec1">      0.33333333       0.00000000       0.00000000 </v>
   <v name="genvec2">      0.00000000       0.33333333       0.00000000 </v>
   <v name="genvec3">      0.00000000       0.00000000       0.33333333 </v>
   <v name="shift">      0.00000000       0.00000000       0.00000000 </v>
  </generation>
  <varray name="kpointlist" >
   <v>       0.00000000       0.00000000       0.00000000 </v>
   <v>       0.33333333       0.00000000       0.00000000 </v>
   <v>       0.00000000       0.33333333       0.00000000 </v>
   <v>       0.33333333       0.33333333       0.00000000 </v>
   <v>       0.00000000       0.00000000       0.33333333 </v>
   <v>       0.33333333       0.00000000       0.33333333 </v>
   <v>       0.00000000       0.33333333       0.33333333 </v>
   <v>       0.33333333       0.33333333       0.33333333 </v>
  </varray>
  <varray name="weights" >
   <v>       0.03703704 </v>
   <v>       0.07407407 </v>
   <v>       0.07407407 </v>
   <v>       0.14814815 </v>
   <v>       0.07407407 </v>
   <v>       0.14814815 </v>
   <v>       0.14814815 </v>
   <v>       0.29629630 </v>
  </varray>
  <varray name="tetrahedronlist"  type="int" >
   <v type="int" >        2        1        2        4        5 </v>
   <v type="int" >        2        1        3        4        5 </v>
   <v type="int" >        2        3        4        5        7 </v>
   <v type="int" >        2        2        4        5        6 </v>
   <v type="int" >        2        4        5        6        8 </v>
   <v type="int" >        2        4        5        7        8 </v>
   <v type="int" >        2        2        2        4        6 </v>
   <v type="int" >        2        2        4        4        6 </v>
   <v type="int" >        2        4        4        6        8 </v>
   <v type="int" >        2        2        4        6        6 </v>
   <v type="int" >        2        4        6        6        8 </v>
   <v type="int" >        2        4        6        8        8 </v>
   <v type="int" >        2        1        2        3        6 </v>
   <v type="int" >        2        2        3        4        6 </v>
   <v type="int" >        2        3        4        6        8 </v>
   <v type="int" >        2        1        3        5        6 </v>
   <v type="int" >        2        3        5        6        7 </v>
   <v type="int" >        2        3        6        7        8 </v>
   <v type="int" >        2        3        4        4        7 </v>
   <v type="int" >        2        3        3        4        7 </v>
   <v type="int" >        2        3        4        7        7 </v>
   <v type="int" >        2        4        4        7        8 </v>
   <v type="int" >        2        4        7        8        8 </v>
   <v type="int" >        2        4        7        7        8 </v>
   <v type="int" >        4        4        4        4        8 </v>
   <v type="int" >        4        4        4        8        8 </v>
   <v type="int" >        4        4        8        8        8 </v>
   <v type="int" >        2        3        3        4        8 </v>
   <v type="int" >        2        3        4        4        8 </v>
   <v type="int" >        2        3        4        8        8 </v>
   <v type="int" >        2        3        3        7        8 </v>
   <v type="int" >        2        3        7        7        8 </v>
   <v type="int" >        2        3        7        8        8 </v>
   <v type="int" >        2        2        3        4        7 </v>
   <v type="int" >        2        1        2        3        7 </v>
   <v type="int" >        2        1        2        5        7 </v>
   <v type="int" >        2        2        4        7        8 </v>
   <v type="int" >        2        2        6        7        8 </v>
   <v type="int" >        2        2        5        6        7 </v>
   <v type="int" >        2        2        4        4        8 </v>
   <v type="int" >        2        2        2        4        8 </v>
   <v type="int" >        2        2        2        6        8 </v>
   <v type="int" >        2        2        4        8        8 </v>
   <v type="int" >        2        2        6        8        8 </v>
   <v type="int" >        2        2        6        6        8 </v>
   <v type="int" >        2        1        3        4        8 </v>
   <v type="int" >        2        1        2        4        8 </v>
   <v type="int" >        2        1        2        6        8 </v>
   <v type="int" >        2        1        3        7        8 </v>
   <v type="int" >        2        1        5        7        8 </v>
   <v type="int" >        2        1        5        6        8 </v>
   <v type="int" >        2        5        5        6        8 </v>
   <v type="int" >        2        5        5        7        8 </v>
   <v type="int" >        2        5        7        7        8 </v>
   <v type="int" >        2        5        6        6        8 </v>
   <v type="int" >        2        5        6        8        8 </v>
   <v type="int" >        2        5        7        8        8 </v>
   <v type="int" >        4        6        6        6        8 </v>
   <v type="int" >        4        6        6        8        8 </v>
   <v type="int" >        4        6        8        8        8 </v>
   <v type="int" >        2        5        6        6        7 </v>
   <v type="int" >        2        6        6        7        8 </v>
   <v type="int" >        2        6        7        8        8 </v>
   <v type="int" >        2        5        5        6        7 </v>
   <v type="int" >        2        5        6        7        7 </v>
   <v type="int" >        2        6        7        7        8 </v>
   <v type="int" >        4        7        7        8        8 </v>
   <v type="int" >        4        7        7        7        8 </v>
   <v type="int" >        4        7        8        8        8 </v>
   <v type="int" >        6        8        8        8        8 </v>
  </varray>
  <i name="volumeweight">      0.00617284 </i>
 </kpoints>
 <parameters>
  <separator name="general" >
   <i type="string" name="SYSTEM">unknown system</i>
   <i type="logical" name="LCOMPAT"> F  </i>
  </separator>
  <separator name="electronic" >
   <i type="string" name="PREC">accura</i>
   <i name="ENMAX">    420.00000000</i>
   <i name="ENAUG">    628.94500000</i>
   <i name="EDIFF">      0.00002000</i>
   <i type="int" name="IALGO">    68</i>
   <i type="int" name="IWAVPR">    10</i>
   <i type="int" name="NBANDS">    48</i>
   <i name="NELECT">     76.00000000</i>
   <i type="int" name="TURBO">     0</i>
   <i type="int" name="IRESTART">     0</i>
   <i type="int" name="NREBOOT">     0</i>
   <i type="int" name="NMIN">     0</i>
   <i name="EREF">      0.00000000</i>
   <separator name="electronic smearing" >
    <i type="int" name="ISMEAR">    -5</i>
    <i name="SIGMA">      0.20000000</i>
    <i name="KSPACING">      0.50000000</i>
    <i type="logical" name="KGAMMA"> T  </i>
   </separator>
   <separator name="electronic projectors" >
    <i type="logical" name="LREAL"> T  </i>
    <v name="ROPT">     -0.00025000     -0.00025000     -0.00025000</v>
    <i type="int" name="LMAXPAW">  -100</i>
    <i type="int" name="LMAXMIX">     2</i>
    <i type="logical" name="NLSPLINE"> F  </i>
   </separator>
   <separator name="electronic startup" >
    <i type="int" name="ISTART">     0</i>
    <i type="int" name="ICHARG">     2</i>
    <i type="int" name="INIWAV">     1</i>
   </separator>
   <separator name="electronic spin" >
    <i type="int" name="ISPIN">     1</i>
    <i type="logical" name="LNONCOLLINEAR"> F  </i>
    <v name="MAGMOM">      1.00000000      1.00000000      1.00000000      1.00000000      1.00000000      1.00000000      1.00000000      1.00000000      1.00000000      1.00000000      1.00000000      1.00000000      1.00000000      1.00000000      1.00000000      1.00000000</v>
    <i name="NUPDOWN">     -1.00000000</i>
    <i type="logical" name="LSORBIT"> F  </i>
    <v name="SAXIS">      0.00000000      0.00000000      1.00000000</v>
    <i type="logical" name="LSPIRAL"> F  </i>
    <v name="QSPIRAL">      0.00000000      0.00000000      0.00000000</v>
    <i type="logical" name="LZEROZ"> F  </i>
   </separator>
   <separator name="electronic exchange-correlation" >
    <i type="logical" name="LASPH"> F  </i>
    <i type="logical" name="LMETAGGA"> F  </i>
   </separator>
   <separator name="electronic convergence" >
    <i type="int" name="NELM">   100</i>
    <i type="int" name="NELMDL">    -5</i>
    <i type="int" name="NELMIN">     2</i>
    <i name="ENINI">    420.00000000</i>
    <separator name="electronic convergence detail" >
     <i type="logical" name="LDIAG"> T  </i>
     <i type="logical" name="LSUBROT"> F  </i>
     <i name="WEIMIN">      0.00000000</i>
     <i name="EBREAK">      0.00000010</i>
     <i name="DEPER">      0.30000000</i>
     <i type="int" name="NRMM">     4</i>
     <i name="TIME">      0.40000000</i>
    </separator>
   </separator>
   <separator name="electronic mixer" >
    <i name="AMIX">      0.40000000</i>
    <i name="BMIX">      1.00000000</i>
    <i name="AMIN">      0.10000000</i>
    <i name="AMIX_MAG">      1.60000000</i>
    <i name="BMIX_MAG">      1.00000000</i>
    <separator name="electronic mixer details" >
     <i type="int" name="IMIX">     4</i>
     <i type="logical" name="MIXFIRST"> F  </i>
     <i type="int" name="MAXMIX">   -45</i>
     <i name="WC">    100.00000000</i>
     <i type="int" name="INIMIX">     1</i>
     <i type="int" name="MIXPRE">     1</i>
     <i type="int" name="MREMOVE">     5</i>
    </separator>
   </separator>
   <separator name="electronic dipolcorrection" >
    <i type="logical" name="LDIPOL"> F  </i>
    <i type="logical" name="LMONO"> F  </i>
    <i type="int" name="IDIPOL">     0</i>
    <i name="EPSILON">      1.00000000</i>
    <v name="DIPOL">   -100.00000000   -100.00000000   -100.00000000</v>
    <i name="EFIELD">      0.00000000</i>
   </separator>
  </separator>
  <separator name="grids" >
   <i type="int" name="NGX">    54</i>
   <i type="int" name="NGY">    42</i>
   <i type="int" name="NGZ">    40</i>
   <i type="int" name="NGXF">   108</i>
   <i type="int" name="NGYF">    84</i>
   <i type="int" name="NGZF">    80</i>
   <i type="logical" name="ADDGRID"> F  </i>
  </separator>
  <separator name="ionic" >
   <i type="int" name="NSW">     0</i>
   <i type="int" name="IBRION">    -1</i>
   <i type="int" name="MDALGO">     0</i>
   <i type="int" name="ISIF">     7</i>
   <i name="PSTRESS">      0.00000000</i>
   <i name="EDIFFG">      0.00020000</i>
   <i type="int" name="NFREE">     1</i>
   <i name="POTIM">      0.50000000</i>
   <i name="SMASS">     -3.00000000</i>
   <i name="SCALEE">      1.00000000</i>
  </separator>
  <separator name="ionic md" >
   <i name="TEBEG">      0.00010000</i>
   <i name="TEEND">      0.00010000</i>
   <i type="int" name="NBLOCK">     1</i>
   <i type="int" name="KBLOCK">     1</i>
   <i type="int" name="NPACO">   256</i>
   <i name="APACO">     16.00000000</i>
  </separator>
  <separator name="symmetry" >
   <i type="int" name="ISYM">     2</i>
   <i name="SYMPREC">      0.00001000</i>
  </separator>
  <separator name="dos" >
   <i type="int" name="LORBIT">     0</i>
   <v name="RWIGS">     -1.00000000     -1.00000000     -1.00000000</v>
   <i type="int" name="NEDOS">   301</i>
   <i name="EMIN">     10.00000000</i>
   <i name="EMAX">    -10.00000000</i>
   <i name="EFERMI">      0.00000000</i>
  </separator>
  <separator name="writing" >
   <i type="int" name="NWRITE">     2</i>
   <i type="logical" name="LWAVE"> F  </i>
   <i type="logical" name="LDOWNSAMPLE"> F  </i>
   <i type="logical" name="LCHARG"> F  </i>
   <i type="logical" name="LPARD"> F  </i>
   <i type="logical" name="LVTOT"> F  </i>
   <i type="logical" name="LVHAR"> F  </i>
   <i type="logical" name="LELF"> F  </i>
   <i type="logical" name="LOPTICS"> F  </i>
   <v name="STM">      0.00000000      0.00000000      0.00000000      0.00000000      0.00000000      0.00000000      0.00000000</v>
  </separator>
  <separator name="performance" >
   <i type="int" name="NPAR">     4</i>
   <i type="int" name="NSIM">     4</i>
   <i type="int" name="NBLK">    -1</i>
   <i type="logical" name="LPLANE"> T  </i>
   <i type="logical" name="LSCALAPACK"> T  </i>
   <i type="logical" name="LSCAAWARE"> F  </i>
   <i type="logical" name="LSCALU"> F  </i>
   <i type="logical" name="LASYNC"> F  </i>
   <i type="logical" name="LORBITALREAL"> F  </i>
  </separator>
  <separator name="miscellaneous" >
   <i type="int" name="IDIOT">     3</i>
   <i type="int" name="ISPECIAL">     0</i>
   <i type="logical" name="LMUSIC"> F  </i>
   <v name="POMASS">     30.97400000     32.06600000      7.01000000</v>
   <v name="DARWINR">      0.00000000      0.00000000      0.00000000</v>
   <v name="DARWINV">      1.00000000      1.00000000      1.00000000</v>
   <i type="logical" name="LCORR"> T  </i>
  </separator>
  <i type="logical" name="GGA_COMPAT"> T  </i>
  <i type="logical" name="LBERRY"> F  </i>
  <i type="int" name="ICORELEVEL">     0</i>
  <i type="logical" name="LDAU"> F  </i>
  <i type="int" name="I_CONSTRAINED_M">     0</i>
  <separator name="electronic exchange-correlation" >
   <i type="string" name="GGA">--</i>
   <i type="int" name="VOSKOWN">     0</i>
   <i type="logical" name="LHFCALC"> F  </i>
   <i type="string" name="PRECFOCK"></i>
   <i type="logical" name="LSYMGRAD"> F  </i>
   <i type="logical" name="LHFONE"> F  </i>
   <i type="logical" name="LRHFCALC"> F  </i>
   <i type="logical" name="LTHOMAS"> F  </i>
   <i type="logical" name="LMODELHF"> F  </i>
   <i name="ENCUT4O">     -1.00000000</i>
   <i type="int" name="EXXOEP">     0</i>
   <i type="int" name="FOURORBIT">     0</i>
   <i name="AEXX">      0.00000000</i>
   <i name="HFALPHA">      0.00000000</i>
   <i name="MCALPHA">      0.00000000</i>
   <i name="ALDAX">      1.00000000</i>
   <i name="AGGAX">      1.00000000</i>
   <i name="ALDAC">      1.00000000</i>
   <i name="AGGAC">      1.00000000</i>
   <i type="int" name="NKREDX">     1</i>
   <i type="int" name="NKREDY">     1</i>
   <i type="int" name="NKREDZ">     1</i>
   <i type="logical" name="SHIFTRED"> F  </i>
   <i type="logical" name="ODDONLY"> F  </i>
   <i type="logical" name="EVENONLY"> F  </i>
   <i type="int" name="LMAXFOCK">     0</i>
   <i type="int" name="NMAXFOCKAE">     0</i>
   <i type="logical" name="LFOCKAEDFT"> F  </i>
   <i name="HFSCREEN">      0.00000000</i>
   <i name="HFSCREENC">      0.00000000</i>
   <i type="int" name="NBANDSGWLOW">     0</i>
  </separator>
  <separator name="vdW DFT" >
   <i type="logical" name="LUSE_VDW"> F  </i>
   <i name="Zab_VDW">     -0.84910000</i>
   <i name="PARAM1">      0.12340000</i>
   <i name="PARAM2">      1.00000000</i>
   <i name="PARAM3">      0.00000000</i>
  </separator>
  <separator name="model GW" >
   <i type="int" name="MODEL_GW">     0</i>
   <i name="MODEL_EPS0">     10.79138658</i>
   <i name="MODEL_ALPHA">      1.00000000</i>
  </separator>
  <separator name="linear response parameters" >
   <i type="logical" name="LEPSILON"> F  </i>
   <i type="logical" name="LRPA"> F  </i>
   <i type="logical" name="LNABLA"> F  </i>
   <i type="logical" name="LVEL"> F  </i>
   <i type="int" name="KINTER">     0</i>
   <i name="CSHIFT">      0.10000000</i>
   <i name="OMEGAMAX">     -1.00000000</i>
   <i name="DEG_THRESHOLD">      0.00200000</i>
   <i name="RTIME">     -0.10000000</i>
   <i name="WPLASMAI">      0.00000000</i>
   <v name="DFIELD">      0.00000000      0.00000000      0.00000000</v>
   <v name="WPLASMA">      0.00000000      0.00000000      0.00000000      0.00000000      0.00000000      0.00000000      0.00000000      0.00000000      0.00000000</v>
  </separator>
  <separator name="orbital magnetization" >
   <i type="logical" name="NUCIND"> F  </i>
   <v name="MAGPOS">      0.00000000      0.00000000      0.00000000</v>
   <i type="logical" name="LNICSALL"> T  </i>
   <i type="logical" name="ORBITALMAG"> F  </i>
   <i type="logical" name="LMAGBLOCH"> F  </i>
   <i type="logical" name="LCHIMAG"> F  </i>
   <i type="logical" name="LGAUGE"> T  </i>
   <i type="int" name="MAGATOM">     0</i>
   <v name="MAGDIPOL">      0.00000000      0.00000000      0.00000000</v>
   <v name="AVECCONST">      0.00000000      0.00000000      0.00000000</v>
  </separator>
  <separator name="response functions" >
   <i type="logical" name="LADDER"> F  </i>
   <i type="logical" name="LRPAFORCE"> F  </i>
   <i type="logical" name="LFXC"> F  </i>
   <i type="logical" name="LHARTREE"> T  </i>
   <i type="int" name="IBSE">     0</i>
   <v type="int" name="KPOINT">    -1     0     0     0</v>
   <i type="logical" name="LTCTE"> F  </i>
   <i type="logical" name="LTETE"> F  </i>
   <i type="logical" name="LTRIPLET"> F  </i>
   <i type="logical" name="LFXCEPS"> F  </i>
   <i type="logical" name="LFXHEG"> F  </i>
   <i type="int" name="NATURALO">     2</i>
   <i type="logical" name="L2ORDER"> F  </i>
   <i type="logical" name="LMP2LT"> F  </i>
   <i type="logical" name="LUSEW"> F  </i>
   <i name="ENCUTGW">     -2.00000000</i>
   <i name="ENCUTGWSOFT">     -2.00000000</i>
   <i name="ENCUTLF">     -1.00000000</i>
   <i type="int" name="LMAXMP2">    -1</i>
   <i name="SCISSOR">      0.00000000</i>
   <i type="int" name="NOMEGA">     0</i>
   <i type="int" name="NOMEGAR">     0</i>
   <i type="int" name="NBANDSGW">    -1</i>
   <i type="int" name="NBANDSO">    -1</i>
   <i type="int" name="NBANDSV">    -1</i>
   <i type="int" name="NELM">   100</i>
   <i type="int" name="NELMHF">     1</i>
   <i type="int" name="DIM">     3</i>
   <i type="int" name="ANTIRES">     0</i>
   <i name="OMEGAMAX">    -30.00000000</i>
   <i name="OMEGAMIN">    -30.00000000</i>
   <i name="OMEGATL">   -200.00000000</i>
   <i type="int" name="OMEGAGRID">   140</i>
   <i name="CSHIFT">     -0.10000000</i>
   <i type="logical" name="SELFENERGY"> F  </i>
   <i type="logical" name="LSPECTRAL"> F  </i>
   <i type="logical" name="LSPECTRALGW"> F  </i>
   <i type="logical" name="LSINGLES"> F  </i>
   <i type="logical" name="LFERMIGW"> F  </i>
   <i type="logical" name="ODDONLYGW"> F  </i>
   <i type="logical" name="EVENONLYGW"> F  </i>
   <i type="int" name="NKREDLFX">     1</i>
   <i type="int" name="NKREDLFY">     1</i>
   <i type="int" name="NKREDLFZ">     1</i>
   <i type="int" name="MAXMEM">  2800</i>
   <i type="int" name="TELESCOPE">     0</i>
   <i type="int" name="TAUPAR">     1</i>
   <i type="int" name="OMEGAPAR">    -1</i>
   <i name="LAMBDA">      1.00000000</i>
  </separator>
  <separator name="External order field" >
   <i name="OFIELD_KAPPA">      0.00000000</i>
   <v name="OFIELD_K">      0.00000000      0.00000000      0.00000000</v>
   <i name="OFIELD_Q6_NEAR">      0.00000000</i>
   <i name="OFIELD_Q6_FAR">      0.00000000</i>
   <i name="OFIELD_A">      0.00000000</i>
  </separator>
 </parameters>
 <atominfo>
  <atoms>      16 </atoms>
  <types>       3 </types>
  <array name="atoms" >
   <dimension dim="1">ion</dimension>
   <field type="string">element</field>
   <field type="int">atomtype</field>
   <set>
    <rc><c>P </c><c>   1</c></rc>
    <rc><c>P </c><c>   1</c></rc>
    <rc><c>S </c><c>   2</c></rc>
    <rc><c>S </c><c>   2</c></rc>
    <rc><c>S </c><c>   2</c></rc>
    <rc><c>S </c><c>   2</c></rc>
    <rc><c>S </c><c>   2</c></rc>
    <rc><c>S </c><c>   2</c></rc>
    <rc><c>S </c><c>   2</c></rc>
    <rc><c>S </c><c>   2</c></rc>
    <rc><c>Li</c><c>   3</c></rc>
    <rc><c>Li</c><c>   3</c></rc>
    <rc><c>Li</c><c>   3</c></rc>
    <rc><c>Li</c><c>   3</c></rc>
    <rc><c>Li</c><c>   3</c></rc>
    <rc><c>Li</c><c>   3</c></rc>
   </set>
  </array>
  <array name="atomtypes" >
   <dimension dim="1">type</dimension>
   <field type="int">atomspertype</field>
   <field type="string">element</field>
   <field>mass</field>
   <field>valence</field>
   <field type="string">pseudopotential</field>
   <set>
    <rc><c>   2</c><c>P </c><c>     30.97400000</c><c>      5.00000000</c><c>  PAW P 26Mar2009                       </c></rc>
    <rc><c>   8</c><c>S </c><c>     32.06600000</c><c>      6.00000000</c><c>  PAW S 27Mar2009                       </c></rc>
    <rc><c>   6</c><c>Li</c><c>      7.01000000</c><c>      3.00000000</c><c>  PAW Li_sv 10Sep2004                   </c></rc>
   </set>
  </array>
 </atominfo>
 <structure name="initialpos" >
  <crystal>
   <varray name="basis" >
    <v>       7.66716623       0.00000000       0.00000000 </v>
    <v>       0.00000000       6.22220380       0.00000000 </v>
    <v>       0.00000000       0.00000000       6.03207693 </v>
   </varray>
   <i name="volume">    287.77030882 </i>
   <varray name="rec_basis" >
    <v>       0.13042628       0.00000000       0.00000000 </v>
    <v>       0.00000000       0.16071476       0.00000000 </v>
    <v>       0.00000000       0.00000000       0.16578038 </v>
   </varray>
  </crystal>
  <varray name="positions" >
   <v>       0.00000000       0.33089338       0.29831610 </v>
   <v>       0.50000000       0.66910662       0.79831610 </v>
   <v>       0.21818844       0.17625609       0.19109483 </v>
   <v>       0.28181156       0.82374391       0.69109483 </v>
   <v>       0.71818844       0.82374391       0.69109483 </v>
   <v>       0.78181156       0.17625609       0.19109483 </v>
   <v>       0.00000000       0.63886688       0.19662437 </v>
   <v>       0.50000000       0.36113312       0.69662437 </v>
   <v>       0.00000000       0.30042990       0.63630457 </v>
   <v>       0.50000000       0.69957010       0.13630457 </v>
   <v>       0.00000000       0.65880389       0.77177485 </v>
   <v>       0.50000000       0.34119611       0.27177485 </v>
   <v>       0.25244506       0.18011445       0.80212647 </v>
   <v>       0.24755494       0.81988555       0.30212647 </v>
   <v>       0.75244506       0.81988555       0.30212647 </v>
   <v>       0.74755494       0.18011445       0.80212647 </v>
  </varray>
 </structure>
 <calculation>
  <scstep>
   <time name="dav">    0.19    0.20</time>
   <time name="total">    0.20    0.21</time>
   <energy>
    <i name="alphaZ">     68.57190477 </i>
    <i name="ewald">  -2733.94835838 </i>
    <i name="hartreedc">   -616.19705968 </i>
    <i name="XCdc">    181.86345446 </i>
    <i name="pawpsdc">   2494.22442938 </i>
    <i name="pawaedc">  -2541.12215007 </i>
    <i name="eentropy">      0.00000000 </i>
    <i name="bandstr">   -118.03490883 </i>
    <i name="atom">   3769.08782378 </i>
    <i name="e_fr_energy">    504.44513544 </i>
    <i name="e_wo_entrp">    504.44513544 </i>
    <i name="e_0_energy">    504.44513544 </i>
   </energy>
  </scstep>
  <scstep>
   <time name="dav">    0.19    0.19</time>
   <time name="total">    0.19    0.19</time>
   <energy>
    <i name="e_fr_energy">     -8.72418708 </i>
    <i name="e_wo_entrp">     -8.72418708 </i>
    <i name="e_0_energy">     -8.72418708 </i>
   </energy>
  </scstep>
  <scstep>
   <time name="dav">    0.22    0.22</time>
   <time name="total">    0.22    0.22</time>
   <energy>
    <i name="e_fr_energy">    -72.13340805 </i>
    <i name="e_wo_entrp">    -72.13340805 </i>
    <i name="e_0_energy">    -72.13340805 </i>
   </energy>
  </scstep>
  <scstep>
   <time name="dav">    0.28    0.28</time>
   <time name="total">    0.28    0.28</time>
   <energy>
    <i name="e_fr_energy">    -79.27104481 </i>
    <i name="e_wo_entrp">    -79.27104481 </i>
    <i name="e_0_energy">    -79.27104481 </i>
   </energy>
  </scstep>
  <scstep>
   <time name="dav">    0.22    0.22</time>
   <time name="total">    0.24    0.24</time>
   <energy>
    <i name="e_fr_energy">    -80.10743800 </i>
    <i name="e_wo_entrp">    -80.10743800 </i>
    <i name="e_0_energy">    -80.10743800 </i>
   </energy>
  </scstep>
  <scstep>
   <time name="diag">    0.05    0.05</time>
   <time name="diis">    0.08    0.08</time>
   <time name="orth">    0.01    0.01</time>
   <time name="total">    0.16    0.16</time>
   <energy>
    <i name="e_fr_energy">    -77.78278841 </i>
    <i name="e_wo_entrp">    -77.78278841 </i>
    <i name="e_0_energy">    -77.78278841 </i>
   </energy>
  </scstep>
  <scstep>
   <time name="diag">    0.05    0.05</time>
   <time name="diis">    0.09    0.09</time>
   <time name="orth">    0.01    0.01</time>
   <time name="total">    0.16    0.16</time>
   <energy>
    <i name="e_fr_energy">    -77.36499769 </i>
    <i name="e_wo_entrp">    -77.36499769 </i>
    <i name="e_0_energy">    -77.36499769 </i>
   </energy>
  </scstep>
  <scstep>
   <time name="diag">    0.05    0.05</time>
   <time name="diis">    0.09    0.09</time>
   <time name="orth">    0.01    0.01</time>
   <time name="total">    0.16    0.16</time>
   <energy>
    <i name="e_fr_energy">    -77.30033058 </i>
    <i name="e_wo_entrp">    -77.30033058 </i>
    <i name="e_0_energy">    -77.30033058 </i>
   </energy>
  </scstep>
  <scstep>
   <time name="diag">    0.05    0.05</time>
   <time name="diis">    0.10    0.10</time>
   <time name="orth">    0.01    0.01</time>
   <time name="total">    0.18    0.18</time>
   <energy>
    <i name="e_fr_energy">    -77.29483290 </i>
    <i name="e_wo_entrp">    -77.29483290 </i>
    <i name="e_0_energy">    -77.29483290 </i>
   </energy>
  </scstep>
  <scstep>
   <time name="diag">    0.05    0.05</time>
   <time name="diis">    0.10    0.10</time>
   <time name="orth">    0.01    0.01</time>
   <time name="total">    0.18    0.18</time>
   <energy>
    <i name="e_fr_energy">    -77.29536543 </i>
    <i name="e_wo_entrp">    -77.29536543 </i>
    <i name="e_0_energy">    -77.29536543 </i>
   </energy>
  </scstep>
  <scstep>
   <time name="diag">    0.05    0.05</time>
   <time name="diis">    0.11    0.11</time>
   <time name="orth">    0.01    0.01</time>
   <time name="total">    0.18    0.18</time>
   <energy>
    <i name="e_fr_energy">    -77.29564306 </i>
    <i name="e_wo_entrp">    -77.29564306 </i>
    <i name="e_0_energy">    -77.29564306 </i>
   </energy>
  </scstep>
  <scstep>
   <time name="diag">    0.05    0.05</time>
   <time name="diis">    0.10    0.10</time>
   <time name="orth">    0.01    0.01</time>
   <time name="total">    0.18    0.18</time>
   <energy>
    <i name="e_fr_energy">    -77.29575302 </i>
    <i name="e_wo_entrp">    -77.29575302 </i>
    <i name="e_0_energy">    -77.29575302 </i>
   </energy>
  </scstep>
  <scstep>
   <time name="diag">    0.05    0.05</time>
   <time name="diis">    0.07    0.07</time>
   <time name="orth">    0.01    0.01</time>
   <time name="total">    0.15    0.15</time>
   <energy>
    <i name="e_fr_energy">    -77.29579997 </i>
    <i name="e_wo_entrp">    -77.29579997 </i>
    <i name="e_0_energy">    -77.29579997 </i>
   </energy>
  </scstep>
  <scstep>
   <time name="diag">    0.05    0.05</time>
   <time name="diis">    0.07    0.07</time>
   <time name="orth">    0.01    0.01</time>
   <time name="total">    0.15    0.15</time>
   <energy>
    <i name="e_fr_energy">    -77.29581737 </i>
    <i name="e_wo_entrp">    -77.29581737 </i>
    <i name="e_0_energy">    -77.29581737 </i>
   </energy>
  </scstep>
  <scstep>
   <time name="diag">    0.05    0.05</time>
   <time name="diis">    0.08    0.08</time>
   <time name="orth">    0.01    0.01</time>
   <time name="total">    0.14    0.14</time>
   <energy>
    <i name="alphaZ">     68.57190477 </i>
    <i name="ewald">  -2733.94835838 </i>
    <i name="hartreedc">   -647.54223141 </i>
    <i name="XCdc">    185.59758484 </i>
    <i name="pawpsdc">   7388.70974268 </i>
    <i name="pawaedc">  -7438.70133190 </i>
    <i name="eentropy">      0.00000000 </i>
    <i name="bandstr">   -669.07096230 </i>
    <i name="atom">   3769.08782378 </i>
    <i name="e_fr_energy">    -77.29582792 </i>
    <i name="e_wo_entrp">    -77.29582792 </i>
    <i name="e_0_energy">    -77.29582792 </i>
   </energy>
  </scstep>
  <structure>
   <crystal>
    <varray name="basis" >
     <v>       7.66716623       0.00000000       0.00000000 </v>
     <v>       0.00000000       6.22220380       0.00000000 </v>
     <v>       0.00000000       0.00000000       6.03207693 </v>
    </varray>
    <i name="volume">    287.77030882 </i>
    <varray name="rec_basis" >
     <v>       0.13042628       0.00000000       0.00000000 </v>
     <v>       0.00000000       0.16071476       0.00000000 </v>
     <v>       0.00000000       0.00000000       0.16578038 </v>
    </varray>
   </crystal>
   <varray name="positions" >
    <v>       0.00000000       0.33089338       0.29831610 </v>
    <v>       0.50000000       0.66910662       0.79831610 </v>
    <v>       0.21818844       0.17625609       0.19109483 </v>
    <v>       0.28181156       0.82374391       0.69109483 </v>
    <v>       0.71818844       0.82374391       0.69109483 </v>
    <v>       0.78181156       0.17625609       0.19109483 </v>
    <v>       0.00000000       0.63886688       0.19662437 </v>
    <v>       0.50000000       0.36113312       0.69662437 </v>
    <v>       0.00000000       0.30042990       0.63630457 </v>
    <v>       0.50000000       0.69957010       0.13630457 </v>
    <v>       0.00000000       0.65880389       0.77177485 </v>
    <v>       0.50000000       0.34119611       0.27177485 </v>
    <v>       0.25244506       0.18011445       0.80212647 </v>
    <v>       0.24755494       0.81988555       0.30212647 </v>
    <v>       0.75244506       0.81988555       0.30212647 </v>
    <v>       0.74755494       0.18011445       0.80212647 </v>
   </varray>
  </structure>
  <varray name="forces" >
   <v>       0.00000000      -0.45398171       0.34294109 </v>
   <v>       0.00000000       0.45398171       0.34294109 </v>
   <v>       0.00248379       0.07118528      -0.22901541 </v>
   <v>      -0.00248379      -0.07118528      -0.22901541 </v>
   <v>       0.00248379      -0.07118528      -0.22901541 </v>
   <v>      -0.00248379       0.07118528      -0.22901541 </v>
   <v>       0.00000000       0.02098172      -0.28902102 </v>
   <v>       0.00000000      -0.02098172      -0.28902102 </v>
   <v>       0.00000000       0.19431712       0.05769687 </v>
   <v>       0.00000000      -0.19431712       0.05769687 </v>
   <v>       0.00000000      -0.10982223       0.20613796 </v>
   <v>       0.00000000       0.10982223       0.20613796 </v>
   <v>      -0.02769737       0.03255145       0.07013796 </v>
   <v>       0.02769737      -0.03255145       0.07013796 </v>
   <v>      -0.02769737      -0.03255145       0.07013796 </v>
   <v>       0.02769737       0.03255145       0.07013796 </v>
  </varray>
  <varray name="stress" >
   <v>       4.39802606       0.00000000       0.00000000 </v>
   <v>       0.00000000       6.67404008       0.00000000 </v>
   <v>       0.00000000       0.00000000      -3.75229781 </v>
  </varray>
  <energy>
   <i name="e_fr_energy">    -77.29582792 </i>
   <i name="e_wo_entrp">    -77.29582792 </i>
   <i name="e_0_energy">      0.00000000 </i>
  </energy>
  <time name="totalsc">    2.93    2.95</time>
  <eigenvalues>
   <array>
    <dimension dim="1">band</dimension>
    <dimension dim="2">kpoint</dimension>
    <dimension dim="3">spin</dimension>
    <field>eigene</field>
    <field>occ</field>
    <set>
     <set comment="spin 1">
      <set comment="kpoint 1">
       <r>  -41.1631    1.0000 </r>
       <r>  -41.1631    1.0000 </r>
       <r>  -40.6427    1.0000 </r>
       <r>  -40.6419    1.0000 </r>
       <r>  -40.6418    1.0000 </r>
       <r>  -40.6411    1.0000 </r>
       <r>  -12.6509    1.0000 </r>
       <r>  -12.4849    1.0000 </r>
       <r>   -9.5790    1.0000 </r>
       <r>   -9.5591    1.0000 </r>
       <r>   -9.4862    1.0000 </r>
       <r>   -9.3659    1.0000 </r>
       <r>   -9.3430    1.0000 </r>
       <r>   -9.1959    1.0000 </r>
       <r>   -5.6412    1.0000 </r>
       <r>   -5.0425    1.0000 </r>
       <r>   -2.6142    1.0000 </r>
       <r>   -2.6130    1.0000 </r>
       <r>   -2.5554    1.0000 </r>
       <r>   -2.2001    1.0000 </r>
       <r>   -2.1758    1.0000 </r>
       <r>   -2.1498    1.0000 </r>
       <r>   -0.0374    1.0000 </r>
       <r>    0.0318    1.0000 </r>
       <r>    0.2431    1.0000 </r>
       <r>    0.2573    1.0000 </r>
       <r>    0.3693    1.0000 </r>
       <r>    0.5113    1.0000 </r>
       <r>    0.6916    1.0000 </r>
       <r>    1.0874    1.0000 </r>
       <r>    1.3209    1.0000 </r>
       <r>    1.4357    1.0000 </r>
       <r>    1.7650    1.0000 </r>
       <r>    1.8005    1.0000 </r>
       <r>    1.8426    1.0000 </r>
       <r>    1.8458    1.0000 </r>
       <r>    2.0249    1.0000 </r>
       <r>    2.0928    1.0000 </r>
       <r>    5.7013    0.0000 </r>
       <r>    5.7080    0.0000 </r>
       <r>    6.1046    0.0000 </r>
       <r>    6.1930    0.0000 </r>
       <r>    6.4576    0.0000 </r>
       <r>    7.2337    0.0000 </r>
       <r>    7.3470    0.0000 </r>
       <r>    7.3731    0.0000 </r>
       <r>    8.0454    0.0000 </r>
       <r>    8.3473    0.0000 </r>
      </set>
      <set comment="kpoint 2">
       <r>  -41.1631    1.0000 </r>
       <r>  -41.1631    1.0000 </r>
       <r>  -40.6425    1.0000 </r>
       <r>  -40.6421    1.0000 </r>
       <r>  -40.6416    1.0000 </r>
       <r>  -40.6413    1.0000 </r>
       <r>  -12.6110    1.0000 </r>
       <r>  -12.5280    1.0000 </r>
       <r>   -9.5543    1.0000 </r>
       <r>   -9.5275    1.0000 </r>
       <r>   -9.5073    1.0000 </r>
       <r>   -9.4183    1.0000 </r>
       <r>   -9.3072    1.0000 </r>
       <r>   -9.2254    1.0000 </r>
       <r>   -5.4676    1.0000 </r>
       <r>   -5.1677    1.0000 </r>
       <r>   -2.6645    1.0000 </r>
       <r>   -2.6569    1.0000 </r>
       <r>   -2.5115    1.0000 </r>
       <r>   -2.2822    1.0000 </r>
       <r>   -2.1545    1.0000 </r>
       <r>   -2.1380    1.0000 </r>
       <r>   -0.0700    1.0000 </r>
       <r>    0.0631    1.0000 </r>
       <r>    0.2372    1.0000 </r>
       <r>    0.4208    1.0000 </r>
       <r>    0.4682    1.0000 </r>
       <r>    0.5873    1.0000 </r>
       <r>    0.9291    1.0000 </r>
       <r>    1.1087    1.0000 </r>
       <r>    1.2912    1.0000 </r>
       <r>    1.4431    1.0000 </r>
       <r>    1.5044    1.0000 </r>
       <r>    1.5358    1.0000 </r>
       <r>    1.7356    1.0000 </r>
       <r>    1.8176    1.0000 </r>
       <r>    1.9042    1.0000 </r>
       <r>    1.9419    1.0000 </r>
       <r>    5.9596    0.0000 </r>
       <r>    6.1149    0.0000 </r>
       <r>    6.3111    0.0000 </r>
       <r>    6.3413    0.0000 </r>
       <r>    6.7268    0.0000 </r>
       <r>    6.9021    0.0000 </r>
       <r>    7.2138    0.0000 </r>
       <r>    7.2281    0.0000 </r>
       <r>    8.1449    0.0000 </r>
       <r>    8.6674    0.0000 </r>
      </set>
      <set comment="kpoint 3">
       <r>  -41.1631    1.0000 </r>
       <r>  -41.1631    1.0000 </r>
       <r>  -40.6427    1.0000 </r>
       <r>  -40.6419    1.0000 </r>
       <r>  -40.6419    1.0000 </r>
       <r>  -40.6410    1.0000 </r>
       <r>  -12.5984    1.0000 </r>
       <r>  -12.4973    1.0000 </r>
       <r>   -9.7234    1.0000 </r>
       <r>   -9.5295    1.0000 </r>
       <r>   -9.5073    1.0000 </r>
       <r>   -9.3736    1.0000 </r>
       <r>   -9.3321    1.0000 </r>
       <r>   -9.2368    1.0000 </r>
       <r>   -5.4026    1.0000 </r>
       <r>   -5.0819    1.0000 </r>
       <r>   -2.6576    1.0000 </r>
       <r>   -2.4784    1.0000 </r>
       <r>   -2.3332    1.0000 </r>
       <r>   -2.2722    1.0000 </r>
       <r>   -2.1610    1.0000 </r>
       <r>   -2.1395    1.0000 </r>
       <r>   -0.1149    1.0000 </r>
       <r>    0.0383    1.0000 </r>
       <r>    0.0548    1.0000 </r>
       <r>    0.2530    1.0000 </r>
       <r>    0.4441    1.0000 </r>
       <r>    0.6203    1.0000 </r>
       <r>    0.8843    1.0000 </r>
       <r>    0.9533    1.0000 </r>
       <r>    1.3026    1.0000 </r>
       <r>    1.5045    1.0000 </r>
       <r>    1.5052    1.0000 </r>
       <r>    1.6046    1.0000 </r>
       <r>    1.6997    1.0000 </r>
       <r>    1.8763    1.0000 </r>
       <r>    2.0089    1.0000 </r>
       <r>    2.1714    1.0000 </r>
       <r>    5.0800    0.0000 </r>
       <r>    5.9234    0.0000 </r>
       <r>    6.3994    0.0000 </r>
       <r>    6.4936    0.0000 </r>
       <r>    6.6713    0.0000 </r>
       <r>    7.1364    0.0000 </r>
       <r>    7.1526    0.0000 </r>
       <r>    7.1863    0.0000 </r>
       <r>    8.0802    0.0000 </r>
       <r>    8.6574    0.0000 </r>
      </set>
      <set comment="kpoint 4">
       <r>  -41.1631    1.0000 </r>
       <r>  -41.1631    1.0000 </r>
       <r>  -40.6425    1.0000 </r>
       <r>  -40.6421    1.0000 </r>
       <r>  -40.6416    1.0000 </r>
       <r>  -40.6412    1.0000 </r>
       <r>  -12.5728    1.0000 </r>
       <r>  -12.5221    1.0000 </r>
       <r>   -9.7099    1.0000 </r>
       <r>   -9.6338    1.0000 </r>
       <r>   -9.4358    1.0000 </r>
       <r>   -9.3948    1.0000 </r>
       <r>   -9.2886    1.0000 </r>
       <r>   -9.2485    1.0000 </r>
       <r>   -5.2924    1.0000 </r>
       <r>   -5.1315    1.0000 </r>
       <r>   -2.6256    1.0000 </r>
       <r>   -2.5142    1.0000 </r>
       <r>   -2.3846    1.0000 </r>
       <r>   -2.2768    1.0000 </r>
       <r>   -2.1592    1.0000 </r>
       <r>   -2.1381    1.0000 </r>
       <r>   -0.1444    1.0000 </r>
       <r>   -0.0741    1.0000 </r>
       <r>    0.0814    1.0000 </r>
       <r>    0.2726    1.0000 </r>
       <r>    0.5223    1.0000 </r>
       <r>    0.7728    1.0000 </r>
       <r>    0.8671    1.0000 </r>
       <r>    1.0082    1.0000 </r>
       <r>    1.1393    1.0000 </r>
       <r>    1.3820    1.0000 </r>
       <r>    1.4097    1.0000 </r>
       <r>    1.5555    1.0000 </r>
       <r>    1.7071    1.0000 </r>
       <r>    1.9119    1.0000 </r>
       <r>    2.0359    1.0000 </r>
       <r>    2.0684    1.0000 </r>
       <r>    5.5641    0.0000 </r>
       <r>    6.0570    0.0000 </r>
       <r>    6.4558    0.0000 </r>
       <r>    6.6036    0.0000 </r>
       <r>    6.7321    0.0000 </r>
       <r>    6.9714    0.0000 </r>
       <r>    7.0208    0.0000 </r>
       <r>    7.3384    0.0000 </r>
       <r>    8.3132    0.0000 </r>
       <r>    8.5887    0.0000 </r>
      </set>
      <set comment="kpoint 5">
       <r>  -41.1631    1.0000 </r>
       <r>  -41.1631    1.0000 </r>
       <r>  -40.6425    1.0000 </r>
       <r>  -40.6421    1.0000 </r>
       <r>  -40.6417    1.0000 </r>
       <r>  -40.6413    1.0000 </r>
       <r>  -12.5844    1.0000 </r>
       <r>  -12.4987    1.0000 </r>
       <r>   -9.5858    1.0000 </r>
       <r>   -9.5316    1.0000 </r>
       <r>   -9.5071    1.0000 </r>
       <r>   -9.4105    1.0000 </r>
       <r>   -9.3991    1.0000 </r>
       <r>   -9.3300    1.0000 </r>
       <r>   -5.4609    1.0000 </r>
       <r>   -5.1333    1.0000 </r>
       <r>   -2.4942    1.0000 </r>
       <r>   -2.3940    1.0000 </r>
       <r>   -2.1810    1.0000 </r>
       <r>   -2.1687    1.0000 </r>
       <r>   -2.1651    1.0000 </r>
       <r>   -1.9939    1.0000 </r>
       <r>   -0.2133    1.0000 </r>
       <r>   -0.2016    1.0000 </r>
       <r>   -0.0598    1.0000 </r>
       <r>   -0.0128    1.0000 </r>
       <r>    0.4170    1.0000 </r>
       <r>    0.8014    1.0000 </r>
       <r>    0.9621    1.0000 </r>
       <r>    1.0621    1.0000 </r>
       <r>    1.1635    1.0000 </r>
       <r>    1.4878    1.0000 </r>
       <r>    1.5219    1.0000 </r>
       <r>    1.6321    1.0000 </r>
       <r>    1.8563    1.0000 </r>
       <r>    1.9280    1.0000 </r>
       <r>    1.9696    1.0000 </r>
       <r>    2.1980    1.0000 </r>
       <r>    5.1555    0.0000 </r>
       <r>    5.5933    0.0000 </r>
       <r>    5.9559    0.0000 </r>
       <r>    6.5488    0.0000 </r>
       <r>    6.8486    0.0000 </r>
       <r>    6.9043    0.0000 </r>
       <r>    7.1052    0.0000 </r>
       <r>    7.3506    0.0000 </r>
       <r>    8.3911    0.0000 </r>
       <r>    8.7430    0.0000 </r>
      </set>
      <set comment="kpoint 6">
       <r>  -41.1631    1.0000 </r>
       <r>  -41.1631    1.0000 </r>
       <r>  -40.6423    1.0000 </r>
       <r>  -40.6419    1.0000 </r>
       <r>  -40.6419    1.0000 </r>
       <r>  -40.6415    1.0000 </r>
       <r>  -12.5623    1.0000 </r>
       <r>  -12.5194    1.0000 </r>
       <r>   -9.6147    1.0000 </r>
       <r>   -9.5769    1.0000 </r>
       <r>   -9.4911    1.0000 </r>
       <r>   -9.4520    1.0000 </r>
       <r>   -9.3401    1.0000 </r>
       <r>   -9.2962    1.0000 </r>
       <r>   -5.3557    1.0000 </r>
       <r>   -5.1913    1.0000 </r>
       <r>   -2.4944    1.0000 </r>
       <r>   -2.4291    1.0000 </r>
       <r>   -2.2348    1.0000 </r>
       <r>   -2.2312    1.0000 </r>
       <r>   -2.0746    1.0000 </r>
       <r>   -1.9964    1.0000 </r>
       <r>   -0.1744    1.0000 </r>
       <r>   -0.0736    1.0000 </r>
       <r>    0.0822    1.0000 </r>
       <r>    0.1082    1.0000 </r>
       <r>    0.2395    1.0000 </r>
       <r>    0.5843    1.0000 </r>
       <r>    0.9530    1.0000 </r>
       <r>    1.0305    1.0000 </r>
       <r>    1.2117    1.0000 </r>
       <r>    1.2309    1.0000 </r>
       <r>    1.5184    1.0000 </r>
       <r>    1.6399    1.0000 </r>
       <r>    1.7983    1.0000 </r>
       <r>    1.9400    1.0000 </r>
       <r>    1.9752    1.0000 </r>
       <r>    2.0630    1.0000 </r>
       <r>    5.4998    0.0000 </r>
       <r>    5.8243    0.0000 </r>
       <r>    6.4518    0.0000 </r>
       <r>    6.6025    0.0000 </r>
       <r>    6.8899    0.0000 </r>
       <r>    6.9290    0.0000 </r>
       <r>    7.1195    0.0000 </r>
       <r>    7.3512    0.0000 </r>
       <r>    8.1994    0.0000 </r>
       <r>    8.6565    0.0000 </r>
      </set>
      <set comment="kpoint 7">
       <r>  -41.1631    1.0000 </r>
       <r>  -41.1631    1.0000 </r>
       <r>  -40.6425    1.0000 </r>
       <r>  -40.6421    1.0000 </r>
       <r>  -40.6417    1.0000 </r>
       <r>  -40.6413    1.0000 </r>
       <r>  -12.5461    1.0000 </r>
       <r>  -12.4939    1.0000 </r>
       <r>   -9.6883    1.0000 </r>
       <r>   -9.5813    1.0000 </r>
       <r>   -9.4912    1.0000 </r>
       <r>   -9.4132    1.0000 </r>
       <r>   -9.4051    1.0000 </r>
       <r>   -9.3579    1.0000 </r>
       <r>   -5.2856    1.0000 </r>
       <r>   -5.1110    1.0000 </r>
       <r>   -2.3263    1.0000 </r>
       <r>   -2.2783    1.0000 </r>
       <r>   -2.2362    1.0000 </r>
       <r>   -2.2061    1.0000 </r>
       <r>   -2.1075    1.0000 </r>
       <r>   -2.0303    1.0000 </r>
       <r>   -0.1783    1.0000 </r>
       <r>   -0.0591    1.0000 </r>
       <r>    0.0646    1.0000 </r>
       <r>    0.1169    1.0000 </r>
       <r>    0.3317    1.0000 </r>
       <r>    0.5861    1.0000 </r>
       <r>    0.8817    1.0000 </r>
       <r>    0.9925    1.0000 </r>
       <r>    1.1770    1.0000 </r>
       <r>    1.2631    1.0000 </r>
       <r>    1.5689    1.0000 </r>
       <r>    1.6096    1.0000 </r>
       <r>    1.7815    1.0000 </r>
       <r>    1.9444    1.0000 </r>
       <r>    1.9446    1.0000 </r>
       <r>    2.0904    1.0000 </r>
       <r>    5.0373    0.0000 </r>
       <r>    5.3078    0.0000 </r>
       <r>    6.3104    0.0000 </r>
       <r>    6.5182    0.0000 </r>
       <r>    6.7511    0.0000 </r>
       <r>    6.7801    0.0000 </r>
       <r>    6.9696    0.0000 </r>
       <r>    7.0242    0.0000 </r>
       <r>    8.1110    0.0000 </r>
       <r>    8.6076    0.0000 </r>
      </set>
      <set comment="kpoint 8">
       <r>  -41.1631    1.0000 </r>
       <r>  -41.1631    1.0000 </r>
       <r>  -40.6423    1.0000 </r>
       <r>  -40.6419    1.0000 </r>
       <r>  -40.6419    1.0000 </r>
       <r>  -40.6415    1.0000 </r>
       <r>  -12.5321    1.0000 </r>
       <r>  -12.5060    1.0000 </r>
       <r>   -9.6697    1.0000 </r>
       <r>   -9.6123    1.0000 </r>
       <r>   -9.5079    1.0000 </r>
       <r>   -9.4432    1.0000 </r>
       <r>   -9.3746    1.0000 </r>
       <r>   -9.3457    1.0000 </r>
       <r>   -5.1981    1.0000 </r>
       <r>   -5.1100    1.0000 </r>
       <r>   -2.4166    1.0000 </r>
       <r>   -2.3471    1.0000 </r>
       <r>   -2.1981    1.0000 </r>
       <r>   -2.1757    1.0000 </r>
       <r>   -2.0315    1.0000 </r>
       <r>   -1.9960    1.0000 </r>
       <r>   -0.2807    1.0000 </r>
       <r>   -0.1943    1.0000 </r>
       <r>   -0.0355    1.0000 </r>
       <r>    0.1054    1.0000 </r>
       <r>    0.4777    1.0000 </r>
       <r>    0.5827    1.0000 </r>
       <r>    0.8273    1.0000 </r>
       <r>    0.9630    1.0000 </r>
       <r>    1.0758    1.0000 </r>
       <r>    1.1663    1.0000 </r>
       <r>    1.5912    1.0000 </r>
       <r>    1.6631    1.0000 </r>
       <r>    1.7749    1.0000 </r>
       <r>    1.8742    1.0000 </r>
       <r>    2.0603    1.0000 </r>
       <r>    2.1005    1.0000 </r>
       <r>    5.3629    0.0000 </r>
       <r>    5.6198    0.0000 </r>
       <r>    6.4001    0.0000 </r>
       <r>    6.5205    0.0000 </r>
       <r>    6.7883    0.0000 </r>
       <r>    6.8896    0.0000 </r>
       <r>    7.0436    0.0000 </r>
       <r>    7.2837    0.0000 </r>
       <r>    8.1746    0.0000 </r>
       <r>    8.5586    0.0000 </r>
      </set>
     </set>
    </set>
   </array>
  </eigenvalues>
  <separator name="orbital magnetization" >
   <v name="MAGDIPOLOUT">      0.00000000      0.00000000      0.00000000</v>
  </separator>
  <dos>
   <i name="efermi">      2.31761079 </i>
   <total>
    <array>
     <dimension dim="1">gridpoints</dimension>
     <dimension dim="2">spin</dimension>
     <field>energy</field>
     <field>total</field>
     <field>integrated</field>
     <set>
      <set comment="spin 1">
       <r>   -43.6584     0.0000     0.0000 </r>
       <r>   -43.4755     0.0000     0.0000 </r>
       <r>   -43.2925     0.0000     0.0000 </r>
       <r>   -43.1095     0.0000     0.0000 </r>
       <r>   -42.9265     0.0000     0.0000 </r>
       <r>   -42.7435     0.0000     0.0000 </r>
       <r>   -42.5605     0.0000     0.0000 </r>
       <r>   -42.3775     0.0000     0.0000 </r>
       <r>   -42.1945     0.0000     0.0000 </r>
       <r>   -42.0115     0.0000     0.0000 </r>
       <r>   -41.8286     0.0000     0.0000 </r>
       <r>   -41.6456     0.0000     0.0000 </r>
       <r>   -41.4626     0.0000     0.0000 </r>
       <r>   -41.2796     0.0000     0.0000 </r>
       <r>   -41.0966     0.0000     4.0000 </r>
       <r>   -40.9136     0.0000     4.0000 </r>
       <r>   -40.7306     0.0000     4.0000 </r>
       <r>   -40.5476     0.0000    12.0000 </r>
       <r>   -40.3646     0.0000    12.0000 </r>
       <r>   -40.1817     0.0000    12.0000 </r>
       <r>   -39.9987     0.0000    12.0000 </r>
       <r>   -39.8157     0.0000    12.0000 </r>
       <r>   -39.6327     0.0000    12.0000 </r>
       <r>   -39.4497     0.0000    12.0000 </r>
       <r>   -39.2667     0.0000    12.0000 </r>
       <r>   -39.0837     0.0000    12.0000 </r>
       <r>   -38.9007     0.0000    12.0000 </r>
       <r>   -38.7177     0.0000    12.0000 </r>
       <r>   -38.5347     0.0000    12.0000 </r>
       <r>   -38.3518     0.0000    12.0000 </r>
       <r>   -38.1688     0.0000    12.0000 </r>
       <r>   -37.9858     0.0000    12.0000 </r>
       <r>   -37.8028     0.0000    12.0000 </r>
       <r>   -37.6198     0.0000    12.0000 </r>
       <r>   -37.4368     0.0000    12.0000 </r>
       <r>   -37.2538     0.0000    12.0000 </r>
       <r>   -37.0708     0.0000    12.0000 </r>
       <r>   -36.8878     0.0000    12.0000 </r>
       <r>   -36.7049     0.0000    12.0000 </r>
       <r>   -36.5219     0.0000    12.0000 </r>
       <r>   -36.3389     0.0000    12.0000 </r>
       <r>   -36.1559     0.0000    12.0000 </r>
       <r>   -35.9729     0.0000    12.0000 </r>
       <r>   -35.7899     0.0000    12.0000 </r>
       <r>   -35.6069     0.0000    12.0000 </r>
       <r>   -35.4239     0.0000    12.0000 </r>
       <r>   -35.2409     0.0000    12.0000 </r>
       <r>   -35.0580     0.0000    12.0000 </r>
       <r>   -34.8750     0.0000    12.0000 </r>
       <r>   -34.6920     0.0000    12.0000 </r>
       <r>   -34.5090     0.0000    12.0000 </r>
       <r>   -34.3260     0.0000    12.0000 </r>
       <r>   -34.1430     0.0000    12.0000 </r>
       <r>   -33.9600     0.0000    12.0000 </r>
       <r>   -33.7770     0.0000    12.0000 </r>
       <r>   -33.5940     0.0000    12.0000 </r>
       <r>   -33.4110     0.0000    12.0000 </r>
       <r>   -33.2281     0.0000    12.0000 </r>
       <r>   -33.0451     0.0000    12.0000 </r>
       <r>   -32.8621     0.0000    12.0000 </r>
       <r>   -32.6791     0.0000    12.0000 </r>
       <r>   -32.4961     0.0000    12.0000 </r>
       <r>   -32.3131     0.0000    12.0000 </r>
       <r>   -32.1301     0.0000    12.0000 </r>
       <r>   -31.9471     0.0000    12.0000 </r>
       <r>   -31.7641     0.0000    12.0000 </r>
       <r>   -31.5812     0.0000    12.0000 </r>
       <r>   -31.3982     0.0000    12.0000 </r>
       <r>   -31.2152     0.0000    12.0000 </r>
       <r>   -31.0322     0.0000    12.0000 </r>
       <r>   -30.8492     0.0000    12.0000 </r>
       <r>   -30.6662     0.0000    12.0000 </r>
       <r>   -30.4832     0.0000    12.0000 </r>
       <r>   -30.3002     0.0000    12.0000 </r>
       <r>   -30.1172     0.0000    12.0000 </r>
       <r>   -29.9343     0.0000    12.0000 </r>
       <r>   -29.7513     0.0000    12.0000 </r>
       <r>   -29.5683     0.0000    12.0000 </r>
       <r>   -29.3853     0.0000    12.0000 </r>
       <r>   -29.2023     0.0000    12.0000 </r>
       <r>   -29.0193     0.0000    12.0000 </r>
       <r>   -28.8363     0.0000    12.0000 </r>
       <r>   -28.6533     0.0000    12.0000 </r>
       <r>   -28.4703     0.0000    12.0000 </r>
       <r>   -28.2873     0.0000    12.0000 </r>
       <r>   -28.1044     0.0000    12.0000 </r>
       <r>   -27.9214     0.0000    12.0000 </r>
       <r>   -27.7384     0.0000    12.0000 </r>
       <r>   -27.5554     0.0000    12.0000 </r>
       <r>   -27.3724     0.0000    12.0000 </r>
       <r>   -27.1894     0.0000    12.0000 </r>
       <r>   -27.0064     0.0000    12.0000 </r>
       <r>   -26.8234     0.0000    12.0000 </r>
       <r>   -26.6404     0.0000    12.0000 </r>
       <r>   -26.4575     0.0000    12.0000 </r>
       <r>   -26.2745     0.0000    12.0000 </r>
       <r>   -26.0915     0.0000    12.0000 </r>
       <r>   -25.9085     0.0000    12.0000 </r>
       <r>   -25.7255     0.0000    12.0000 </r>
       <r>   -25.5425     0.0000    12.0000 </r>
       <r>   -25.3595     0.0000    12.0000 </r>
       <r>   -25.1765     0.0000    12.0000 </r>
       <r>   -24.9935     0.0000    12.0000 </r>
       <r>   -24.8106     0.0000    12.0000 </r>
       <r>   -24.6276     0.0000    12.0000 </r>
       <r>   -24.4446     0.0000    12.0000 </r>
       <r>   -24.2616     0.0000    12.0000 </r>
       <r>   -24.0786     0.0000    12.0000 </r>
       <r>   -23.8956     0.0000    12.0000 </r>
       <r>   -23.7126     0.0000    12.0000 </r>
       <r>   -23.5296     0.0000    12.0000 </r>
       <r>   -23.3466     0.0000    12.0000 </r>
       <r>   -23.1636     0.0000    12.0000 </r>
       <r>   -22.9807     0.0000    12.0000 </r>
       <r>   -22.7977     0.0000    12.0000 </r>
       <r>   -22.6147     0.0000    12.0000 </r>
       <r>   -22.4317     0.0000    12.0000 </r>
       <r>   -22.2487     0.0000    12.0000 </r>
       <r>   -22.0657     0.0000    12.0000 </r>
       <r>   -21.8827     0.0000    12.0000 </r>
       <r>   -21.6997     0.0000    12.0000 </r>
       <r>   -21.5167     0.0000    12.0000 </r>
       <r>   -21.3338     0.0000    12.0000 </r>
       <r>   -21.1508     0.0000    12.0000 </r>
       <r>   -20.9678     0.0000    12.0000 </r>
       <r>   -20.7848     0.0000    12.0000 </r>
       <r>   -20.6018     0.0000    12.0000 </r>
       <r>   -20.4188     0.0000    12.0000 </r>
       <r>   -20.2358     0.0000    12.0000 </r>
       <r>   -20.0528     0.0000    12.0000 </r>
       <r>   -19.8698     0.0000    12.0000 </r>
       <r>   -19.6869     0.0000    12.0000 </r>
       <r>   -19.5039     0.0000    12.0000 </r>
       <r>   -19.3209     0.0000    12.0000 </r>
       <r>   -19.1379     0.0000    12.0000 </r>
       <r>   -18.9549     0.0000    12.0000 </r>
       <r>   -18.7719     0.0000    12.0000 </r>
       <r>   -18.5889     0.0000    12.0000 </r>
       <r>   -18.4059     0.0000    12.0000 </r>
       <r>   -18.2229     0.0000    12.0000 </r>
       <r>   -18.0399     0.0000    12.0000 </r>
       <r>   -17.8570     0.0000    12.0000 </r>
       <r>   -17.6740     0.0000    12.0000 </r>
       <r>   -17.4910     0.0000    12.0000 </r>
       <r>   -17.3080     0.0000    12.0000 </r>
       <r>   -17.1250     0.0000    12.0000 </r>
       <r>   -16.9420     0.0000    12.0000 </r>
       <r>   -16.7590     0.0000    12.0000 </r>
       <r>   -16.5760     0.0000    12.0000 </r>
       <r>   -16.3930     0.0000    12.0000 </r>
       <r>   -16.2101     0.0000    12.0000 </r>
       <r>   -16.0271     0.0000    12.0000 </r>
       <r>   -15.8441     0.0000    12.0000 </r>
       <r>   -15.6611     0.0000    12.0000 </r>
       <r>   -15.4781     0.0000    12.0000 </r>
       <r>   -15.2951     0.0000    12.0000 </r>
       <r>   -15.1121     0.0000    12.0000 </r>
       <r>   -14.9291     0.0000    12.0000 </r>
       <r>   -14.7461     0.0000    12.0000 </r>
       <r>   -14.5632     0.0000    12.0000 </r>
       <r>   -14.3802     0.0000    12.0000 </r>
       <r>   -14.1972     0.0000    12.0000 </r>
       <r>   -14.0142     0.0000    12.0000 </r>
       <r>   -13.8312     0.0000    12.0000 </r>
       <r>   -13.6482     0.0000    12.0000 </r>
       <r>   -13.4652     0.0000    12.0000 </r>
       <r>   -13.2822     0.0000    12.0000 </r>
       <r>   -13.0992     0.0000    12.0000 </r>
       <r>   -12.9162     0.0000    12.0000 </r>
       <r>   -12.7333     0.0000    12.0000 </r>
       <r>   -12.5503    32.4326    13.3833 </r>
       <r>   -12.3673     0.0000    16.0000 </r>
       <r>   -12.1843     0.0000    16.0000 </r>
       <r>   -12.0013     0.0000    16.0000 </r>
       <r>   -11.8183     0.0000    16.0000 </r>
       <r>   -11.6353     0.0000    16.0000 </r>
       <r>   -11.4523     0.0000    16.0000 </r>
       <r>   -11.2693     0.0000    16.0000 </r>
       <r>   -11.0864     0.0000    16.0000 </r>
       <r>   -10.9034     0.0000    16.0000 </r>
       <r>   -10.7204     0.0000    16.0000 </r>
       <r>   -10.5374     0.0000    16.0000 </r>
       <r>   -10.3544     0.0000    16.0000 </r>
       <r>   -10.1714     0.0000    16.0000 </r>
       <r>    -9.9884     0.0000    16.0000 </r>
       <r>    -9.8054     0.0000    16.0000 </r>
       <r>    -9.6224    26.7372    17.6987 </r>
       <r>    -9.4395    30.8441    22.3890 </r>
       <r>    -9.2565    13.5725    27.7089 </r>
       <r>    -9.0735     0.0000    28.0000 </r>
       <r>    -8.8905     0.0000    28.0000 </r>
       <r>    -8.7075     0.0000    28.0000 </r>
       <r>    -8.5245     0.0000    28.0000 </r>
       <r>    -8.3415     0.0000    28.0000 </r>
       <r>    -8.1585     0.0000    28.0000 </r>
       <r>    -7.9755     0.0000    28.0000 </r>
       <r>    -7.7925     0.0000    28.0000 </r>
       <r>    -7.6096     0.0000    28.0000 </r>
       <r>    -7.4266     0.0000    28.0000 </r>
       <r>    -7.2436     0.0000    28.0000 </r>
       <r>    -7.0606     0.0000    28.0000 </r>
       <r>    -6.8776     0.0000    28.0000 </r>
       <r>    -6.6946     0.0000    28.0000 </r>
       <r>    -6.5116     0.0000    28.0000 </r>
       <r>    -6.3286     0.0000    28.0000 </r>
       <r>    -6.1456     0.0000    28.0000 </r>
       <r>    -5.9627     0.0000    28.0000 </r>
       <r>    -5.7797     0.0000    28.0000 </r>
       <r>    -5.5967     0.1024    28.0015 </r>
       <r>    -5.4137     4.3134    28.2468 </r>
       <r>    -5.2307     6.8237    29.7473 </r>
       <r>    -5.0477     0.0541    31.9999 </r>
       <r>    -4.8647     0.0000    32.0000 </r>
       <r>    -4.6817     0.0000    32.0000 </r>
       <r>    -4.4987     0.0000    32.0000 </r>
       <r>    -4.3158     0.0000    32.0000 </r>
       <r>    -4.1328     0.0000    32.0000 </r>
       <r>    -3.9498     0.0000    32.0000 </r>
       <r>    -3.7668     0.0000    32.0000 </r>
       <r>    -3.5838     0.0000    32.0000 </r>
       <r>    -3.4008     0.0000    32.0000 </r>
       <r>    -3.2178     0.0000    32.0000 </r>
       <r>    -3.0348     0.0000    32.0000 </r>
       <r>    -2.8518     0.0000    32.0000 </r>
       <r>    -2.6688     0.0000    32.0000 </r>
       <r>    -2.4859    17.7191    33.4431 </r>
       <r>    -2.3029    10.5890    36.6317 </r>
       <r>    -2.1199    25.7765    40.9430 </r>
       <r>    -1.9369     0.0000    44.0000 </r>
       <r>    -1.7539     0.0000    44.0000 </r>
       <r>    -1.5709     0.0000    44.0000 </r>
       <r>    -1.3879     0.0000    44.0000 </r>
       <r>    -1.2049     0.0000    44.0000 </r>
       <r>    -1.0219     0.0000    44.0000 </r>
       <r>    -0.8390     0.0000    44.0000 </r>
       <r>    -0.6560     0.0000    44.0000 </r>
       <r>    -0.4730     0.0000    44.0000 </r>
       <r>    -0.2900     0.0000    44.0000 </r>
       <r>    -0.1070    16.6279    46.7420 </r>
       <r>     0.0760    15.4909    49.6542 </r>
       <r>     0.2590     6.9362    51.7865 </r>
       <r>     0.4420    10.9077    53.2292 </r>
       <r>     0.6250     9.8784    55.1655 </r>
       <r>     0.8079     1.5181    56.0589 </r>
       <r>     0.9909    29.0978    58.7741 </r>
       <r>     1.1739    19.9637    61.2179 </r>
       <r>     1.3569     6.9345    63.4031 </r>
       <r>     1.5399    18.2638    64.9804 </r>
       <r>     1.7229    12.3344    68.1367 </r>
       <r>     1.9059    29.6904    71.1881 </r>
       <r>     2.0889    28.2855    74.8756 </r>
       <r>     2.2719     0.0000    76.0000 </r>
       <r>     2.4549     0.0000    76.0000 </r>
       <r>     2.6378     0.0000    76.0000 </r>
       <r>     2.8208     0.0000    76.0000 </r>
       <r>     3.0038     0.0000    76.0000 </r>
       <r>     3.1868     0.0000    76.0000 </r>
       <r>     3.3698     0.0000    76.0000 </r>
       <r>     3.5528     0.0000    76.0000 </r>
       <r>     3.7358     0.0000    76.0000 </r>
       <r>     3.9188     0.0000    76.0000 </r>
       <r>     4.1018     0.0000    76.0000 </r>
       <r>     4.2847     0.0000    76.0000 </r>
       <r>     4.4677     0.0000    76.0000 </r>
       <r>     4.6507     0.0000    76.0000 </r>
       <r>     4.8337     0.0000    76.0000 </r>
       <r>     5.0167     0.0000    76.0000 </r>
       <r>     5.1997     2.8782    76.3395 </r>
       <r>     5.3827     5.5522    77.0617 </r>
       <r>     5.5657     4.0973    78.0703 </r>
       <r>     5.7487     4.7956    79.0199 </r>
       <r>     5.9316     2.7871    79.7079 </r>
       <r>     6.1146     0.9520    80.0606 </r>
       <r>     6.2976     3.1373    80.4085 </r>
       <r>     6.4806     3.6049    82.3388 </r>
       <r>     6.6636     1.4103    84.0969 </r>
       <r>     6.8466    11.3256    86.0345 </r>
       <r>     7.0296    19.4590    88.2171 </r>
       <r>     7.2126     6.1633    90.3981 </r>
       <r>     7.3956     0.0000    92.0000 </r>
       <r>     7.5786     0.0000    92.0000 </r>
       <r>     7.7615     0.0000    92.0000 </r>
       <r>     7.9445     0.0000    92.0000 </r>
       <r>     8.1275     8.3265    92.2411 </r>
       <r>     8.3105     2.6205    93.9484 </r>
       <r>     8.4935     0.8075    94.0394 </r>
       <r>     8.6765     3.6900    95.8976 </r>
       <r>     8.8595     0.0000    96.0000 </r>
       <r>     9.0425     0.0000    96.0000 </r>
       <r>     9.2255     0.0000    96.0000 </r>
       <r>     9.4084     0.0000    96.0000 </r>
       <r>     9.5914     0.0000    96.0000 </r>
       <r>     9.7744     0.0000    96.0000 </r>
       <r>     9.9574     0.0000    96.0000 </r>
       <r>    10.1404     0.0000    96.0000 </r>
       <r>    10.3234     0.0000    96.0000 </r>
       <r>    10.5064     0.0000    96.0000 </r>
       <r>    10.6894     0.0000    96.0000 </r>
       <r>    10.8724     0.0000    96.0000 </r>
       <r>    11.0553     0.0000    96.0000 </r>
       <r>    11.2383     0.0000    96.0000 </r>
      </set>
     </set>
    </array>
   </total>
  </dos>
 </calculation>
 <structure name="finalpos" >
  <crystal>
   <varray name="basis" >
    <v>       7.66716623       0.00000000       0.00000000 </v>
    <v>       0.00000000       6.22220380       0.00000000 </v>
    <v>       0.00000000       0.00000000       6.03207693 </v>
   </varray>
   <i name="volume">    287.77030882 </i>
   <varray name="rec_basis" >
    <v>       0.13042628       0.00000000       0.00000000 </v>
    <v>       0.00000000       0.16071476       0.00000000 </v>
    <v>       0.00000000       0.00000000       0.16578038 </v>
   </varray>
  </crystal>
  <varray name="positions" >
   <v>       0.00000000       0.33089338       0.29831610 </v>
   <v>       0.50000000       0.66910662       0.79831610 </v>
   <v>       0.21818844       0.17625609       0.19109483 </v>
   <v>       0.28181156       0.82374391       0.69109483 </v>
   <v>       0.71818844       0.82374391       0.69109483 </v>
   <v>       0.78181156       0.17625609       0.19109483 </v>
   <v>       0.00000000       0.63886688       0.19662437 </v>
   <v>       0.50000000       0.36113312       0.69662437 </v>
   <v>       0.00000000       0.30042990       0.63630457 </v>
   <v>       0.50000000       0.69957010       0.13630457 </v>
   <v>       0.00000000       0.65880389       0.77177485 </v>
   <v>       0.50000000       0.34119611       0.27177485 </v>
   <v>       0.25244506       0.18011445       0.80212647 </v>
   <v>       0.24755494       0.81988555       0.30212647 </v>
   <v>       0.75244506       0.81988555       0.30212647 </v>
   <v>       0.74755494       0.18011445       0.80212647 </v>
  </varray>
 </structure>
</modeling>
