unknown system                          
           1
     7.667166    0.000000    0.000000
     0.000000    6.222204    0.000000
     0.000000    0.000000    6.032077
   P    S    Li
   2   8   6
Direct configuration=     1
   0.00000000  0.33089338  0.29831610
   0.50000000  0.66910662  0.79831610
   0.21818844  0.17625609  0.19109483
   0.28181156  0.82374391  0.69109483
   0.71818844  0.82374391  0.69109483
   0.78181156  0.17625609  0.19109483
   0.00000000  0.63886688  0.19662437
   0.50000000  0.36113312  0.69662437
   0.00000000  0.30042990  0.63630457
   0.50000000  0.69957010  0.13630457
   0.00000000  0.65880389  0.77177485
   0.50000000  0.34119611  0.27177485
   0.25244506  0.18011445  0.80212647
   0.24755494  0.81988555  0.30212647
   0.75244506  0.81988555  0.30212647
   0.74755494  0.18011445  0.80212647
