  16  16   0   0
  0.1762901E+02  0.7166537E-09  0.5682428E-09  0.6926355E-09  0.5000000E-15
  1.000000000000000E-004
  CAR 
 unknown system                          
     11.32602531    -44.03200775  301      3.06845205      1.00000000
    -44.032  0.0000E+00  0.0000E+00
    -43.847  0.0000E+00  0.0000E+00
    -43.663  0.0000E+00  0.0000E+00
    -43.478  0.0000E+00  0.0000E+00
    -43.294  0.0000E+00  0.0000E+00
    -43.109  0.0000E+00  0.0000E+00
    -42.925  0.0000E+00  0.0000E+00
    -42.740  0.0000E+00  0.0000E+00
    -42.556  0.0000E+00  0.0000E+00
    -42.371  0.0000E+00  0.0000E+00
    -42.187  0.0000E+00  0.0000E+00
    -42.002  0.0000E+00  0.0000E+00
    -41.818  0.0000E+00  0.0000E+00
    -41.633  0.0000E+00  0.0000E+00
    -41.449  0.0000E+00  0.4000E+01
    -41.264  0.0000E+00  0.4000E+01
    -41.080  0.0000E+00  0.4000E+01
    -40.895  0.0000E+00  0.4000E+01
    -40.711  0.0000E+00  0.1200E+02
    -40.526  0.0000E+00  0.1200E+02
    -40.341  0.0000E+00  0.1200E+02
    -40.157  0.0000E+00  0.1200E+02
    -39.972  0.0000E+00  0.1200E+02
    -39.788  0.0000E+00  0.1200E+02
    -39.603  0.0000E+00  0.1200E+02
    -39.419  0.0000E+00  0.1200E+02
    -39.234  0.0000E+00  0.1200E+02
    -39.050  0.0000E+00  0.1200E+02
    -38.865  0.0000E+00  0.1200E+02
    -38.681  0.0000E+00  0.1200E+02
    -38.496  0.0000E+00  0.1200E+02
    -38.312  0.0000E+00  0.1200E+02
    -38.127  0.0000E+00  0.1200E+02
    -37.943  0.0000E+00  0.1200E+02
    -37.758  0.0000E+00  0.1200E+02
    -37.574  0.0000E+00  0.1200E+02
    -37.389  0.0000E+00  0.1200E+02
    -37.205  0.0000E+00  0.1200E+02
    -37.020  0.0000E+00  0.1200E+02
    -36.835  0.0000E+00  0.1200E+02
    -36.651  0.0000E+00  0.1200E+02
    -36.466  0.0000E+00  0.1200E+02
    -36.282  0.0000E+00  0.1200E+02
    -36.097  0.0000E+00  0.1200E+02
    -35.913  0.0000E+00  0.1200E+02
    -35.728  0.0000E+00  0.1200E+02
    -35.544  0.0000E+00  0.1200E+02
    -35.359  0.0000E+00  0.1200E+02
    -35.175  0.0000E+00  0.1200E+02
    -34.990  0.0000E+00  0.1200E+02
    -34.806  0.0000E+00  0.1200E+02
    -34.621  0.0000E+00  0.1200E+02
    -34.437  0.0000E+00  0.1200E+02
    -34.252  0.0000E+00  0.1200E+02
    -34.068  0.0000E+00  0.1200E+02
    -33.883  0.0000E+00  0.1200E+02
    -33.699  0.0000E+00  0.1200E+02
    -33.514  0.0000E+00  0.1200E+02
    -33.329  0.0000E+00  0.1200E+02
    -33.145  0.0000E+00  0.1200E+02
    -32.960  0.0000E+00  0.1200E+02
    -32.776  0.0000E+00  0.1200E+02
    -32.591  0.0000E+00  0.1200E+02
    -32.407  0.0000E+00  0.1200E+02
    -32.222  0.0000E+00  0.1200E+02
    -32.038  0.0000E+00  0.1200E+02
    -31.853  0.0000E+00  0.1200E+02
    -31.669  0.0000E+00  0.1200E+02
    -31.484  0.0000E+00  0.1200E+02
    -31.300  0.0000E+00  0.1200E+02
    -31.115  0.0000E+00  0.1200E+02
    -30.931  0.0000E+00  0.1200E+02
    -30.746  0.0000E+00  0.1200E+02
    -30.562  0.0000E+00  0.1200E+02
    -30.377  0.0000E+00  0.1200E+02
    -30.192  0.0000E+00  0.1200E+02
    -30.008  0.0000E+00  0.1200E+02
    -29.823  0.0000E+00  0.1200E+02
    -29.639  0.0000E+00  0.1200E+02
    -29.454  0.0000E+00  0.1200E+02
    -29.270  0.0000E+00  0.1200E+02
    -29.085  0.0000E+00  0.1200E+02
    -28.901  0.0000E+00  0.1200E+02
    -28.716  0.0000E+00  0.1200E+02
    -28.532  0.0000E+00  0.1200E+02
    -28.347  0.0000E+00  0.1200E+02
    -28.163  0.0000E+00  0.1200E+02
    -27.978  0.0000E+00  0.1200E+02
    -27.794  0.0000E+00  0.1200E+02
    -27.609  0.0000E+00  0.1200E+02
    -27.425  0.0000E+00  0.1200E+02
    -27.240  0.0000E+00  0.1200E+02
    -27.056  0.0000E+00  0.1200E+02
    -26.871  0.0000E+00  0.1200E+02
    -26.686  0.0000E+00  0.1200E+02
    -26.502  0.0000E+00  0.1200E+02
    -26.317  0.0000E+00  0.1200E+02
    -26.133  0.0000E+00  0.1200E+02
    -25.948  0.0000E+00  0.1200E+02
    -25.764  0.0000E+00  0.1200E+02
    -25.579  0.0000E+00  0.1200E+02
    -25.395  0.0000E+00  0.1200E+02
    -25.210  0.0000E+00  0.1200E+02
    -25.026  0.0000E+00  0.1200E+02
    -24.841  0.0000E+00  0.1200E+02
    -24.657  0.0000E+00  0.1200E+02
    -24.472  0.0000E+00  0.1200E+02
    -24.288  0.0000E+00  0.1200E+02
    -24.103  0.0000E+00  0.1200E+02
    -23.919  0.0000E+00  0.1200E+02
    -23.734  0.0000E+00  0.1200E+02
    -23.550  0.0000E+00  0.1200E+02
    -23.365  0.0000E+00  0.1200E+02
    -23.180  0.0000E+00  0.1200E+02
    -22.996  0.0000E+00  0.1200E+02
    -22.811  0.0000E+00  0.1200E+02
    -22.627  0.0000E+00  0.1200E+02
    -22.442  0.0000E+00  0.1200E+02
    -22.258  0.0000E+00  0.1200E+02
    -22.073  0.0000E+00  0.1200E+02
    -21.889  0.0000E+00  0.1200E+02
    -21.704  0.0000E+00  0.1200E+02
    -21.520  0.0000E+00  0.1200E+02
    -21.335  0.0000E+00  0.1200E+02
    -21.151  0.0000E+00  0.1200E+02
    -20.966  0.0000E+00  0.1200E+02
    -20.782  0.0000E+00  0.1200E+02
    -20.597  0.0000E+00  0.1200E+02
    -20.413  0.0000E+00  0.1200E+02
    -20.228  0.0000E+00  0.1200E+02
    -20.044  0.0000E+00  0.1200E+02
    -19.859  0.0000E+00  0.1200E+02
    -19.674  0.0000E+00  0.1200E+02
    -19.490  0.0000E+00  0.1200E+02
    -19.305  0.0000E+00  0.1200E+02
    -19.121  0.0000E+00  0.1200E+02
    -18.936  0.0000E+00  0.1200E+02
    -18.752  0.0000E+00  0.1200E+02
    -18.567  0.0000E+00  0.1200E+02
    -18.383  0.0000E+00  0.1200E+02
    -18.198  0.0000E+00  0.1200E+02
    -18.014  0.0000E+00  0.1200E+02
    -17.829  0.0000E+00  0.1200E+02
    -17.645  0.0000E+00  0.1200E+02
    -17.460  0.0000E+00  0.1200E+02
    -17.276  0.0000E+00  0.1200E+02
    -17.091  0.0000E+00  0.1200E+02
    -16.907  0.0000E+00  0.1200E+02
    -16.722  0.0000E+00  0.1200E+02
    -16.538  0.0000E+00  0.1200E+02
    -16.353  0.0000E+00  0.1200E+02
    -16.168  0.0000E+00  0.1200E+02
    -15.984  0.0000E+00  0.1200E+02
    -15.799  0.0000E+00  0.1200E+02
    -15.615  0.0000E+00  0.1200E+02
    -15.430  0.0000E+00  0.1200E+02
    -15.246  0.0000E+00  0.1200E+02
    -15.061  0.0000E+00  0.1200E+02
    -14.877  0.0000E+00  0.1200E+02
    -14.692  0.0000E+00  0.1200E+02
    -14.508  0.0000E+00  0.1200E+02
    -14.323  0.0000E+00  0.1200E+02
    -14.139  0.0000E+00  0.1200E+02
    -13.954  0.0000E+00  0.1200E+02
    -13.770  0.0000E+00  0.1200E+02
    -13.585  0.0000E+00  0.1200E+02
    -13.401  0.0000E+00  0.1200E+02
    -13.216  0.0000E+00  0.1200E+02
    -13.032  0.0000E+00  0.1200E+02
    -12.847  0.0000E+00  0.1200E+02
    -12.662  0.0000E+00  0.1200E+02
    -12.478  0.5882E+01  0.1209E+02
    -12.293  0.0000E+00  0.1600E+02
    -12.109  0.0000E+00  0.1600E+02
    -11.924  0.0000E+00  0.1600E+02
    -11.740  0.0000E+00  0.1600E+02
    -11.555  0.0000E+00  0.1600E+02
    -11.371  0.0000E+00  0.1600E+02
    -11.186  0.0000E+00  0.1600E+02
    -11.002  0.0000E+00  0.1600E+02
    -10.817  0.0000E+00  0.1600E+02
    -10.633  0.0000E+00  0.1600E+02
    -10.448  0.0000E+00  0.1600E+02
    -10.264  0.0000E+00  0.1600E+02
    -10.079  0.0000E+00  0.1600E+02
     -9.895  0.0000E+00  0.1600E+02
     -9.710  0.0000E+00  0.1600E+02
     -9.526  0.9922E+01  0.1932E+02
     -9.341  0.3358E+02  0.2121E+02
     -9.156  0.2235E+02  0.2464E+02
     -8.972  0.4614E+01  0.2791E+02
     -8.787  0.0000E+00  0.2800E+02
     -8.603  0.0000E+00  0.2800E+02
     -8.418  0.0000E+00  0.2800E+02
     -8.234  0.0000E+00  0.2800E+02
     -8.049  0.0000E+00  0.2800E+02
     -7.865  0.0000E+00  0.2800E+02
     -7.680  0.0000E+00  0.2800E+02
     -7.496  0.0000E+00  0.2800E+02
     -7.311  0.0000E+00  0.2800E+02
     -7.127  0.0000E+00  0.2800E+02
     -6.942  0.0000E+00  0.2800E+02
     -6.758  0.0000E+00  0.2800E+02
     -6.573  0.0000E+00  0.2800E+02
     -6.389  0.0000E+00  0.2800E+02
     -6.204  0.0000E+00  0.2800E+02
     -6.019  0.0000E+00  0.2800E+02
     -5.835  0.0000E+00  0.2800E+02
     -5.650  0.0000E+00  0.2800E+02
     -5.466  0.1708E+00  0.2800E+02
     -5.281  0.2286E+01  0.2819E+02
     -5.097  0.7090E+01  0.2915E+02
     -4.912  0.1403E+02  0.3058E+02
     -4.728  0.0000E+00  0.3200E+02
     -4.543  0.0000E+00  0.3200E+02
     -4.359  0.0000E+00  0.3200E+02
     -4.174  0.0000E+00  0.3200E+02
     -3.990  0.0000E+00  0.3200E+02
     -3.805  0.0000E+00  0.3200E+02
     -3.621  0.0000E+00  0.3200E+02
     -3.436  0.0000E+00  0.3200E+02
     -3.252  0.0000E+00  0.3200E+02
     -3.067  0.0000E+00  0.3200E+02
     -2.883  0.0000E+00  0.3200E+02
     -2.698  0.3202E-01  0.3200E+02
     -2.513  0.8892E+01  0.3255E+02
     -2.329  0.1558E+02  0.3488E+02
     -2.144  0.1415E+02  0.3811E+02
     -1.960  0.4384E+01  0.3985E+02
     -1.775  0.1420E+02  0.4157E+02
     -1.591  0.0000E+00  0.4400E+02
     -1.406  0.0000E+00  0.4400E+02
     -1.222  0.0000E+00  0.4400E+02
     -1.037  0.0000E+00  0.4400E+02
     -0.853  0.0000E+00  0.4400E+02
     -0.668  0.1669E-04  0.4400E+02
     -0.484  0.2086E+01  0.4414E+02
     -0.299  0.2197E+02  0.4552E+02
     -0.115  0.7534E+01  0.4775E+02
      0.070  0.8806E+01  0.4845E+02
      0.254  0.9935E+01  0.5088E+02
      0.439  0.6021E+01  0.5260E+02
      0.623  0.4104E+01  0.5401E+02
      0.808  0.1020E+02  0.5658E+02
      0.993  0.3179E+01  0.5774E+02
      1.177  0.4430E+01  0.5992E+02
      1.362  0.2094E+02  0.6196E+02
      1.546  0.2803E+01  0.6376E+02
      1.731  0.9966E+01  0.6483E+02
      1.915  0.1208E+02  0.6739E+02
      2.100  0.1195E+02  0.6977E+02
      2.284  0.9039E+01  0.7151E+02
      2.469  0.8982E+01  0.7366E+02
      2.653  0.6744E+01  0.7516E+02
      2.838  0.2235E+01  0.7589E+02
      3.022  0.0000E+00  0.7600E+02
      3.207  0.0000E+00  0.7600E+02
      3.391  0.0000E+00  0.7600E+02
      3.576  0.0000E+00  0.7600E+02
      3.760  0.0000E+00  0.7600E+02
      3.945  0.0000E+00  0.7600E+02
      4.129  0.0000E+00  0.7600E+02
      4.314  0.0000E+00  0.7600E+02
      4.499  0.0000E+00  0.7600E+02
      4.683  0.6271E-01  0.7600E+02
      4.868  0.3533E+00  0.7604E+02
      5.052  0.1276E+01  0.7617E+02
      5.237  0.2669E+01  0.7657E+02
      5.421  0.3125E+01  0.7708E+02
      5.606  0.5944E+01  0.7802E+02
      5.790  0.3986E+01  0.7900E+02
      5.975  0.4077E+01  0.7978E+02
      6.159  0.2357E+01  0.8040E+02
      6.344  0.5312E+01  0.8097E+02
      6.528  0.7253E+01  0.8225E+02
      6.713  0.9620E+01  0.8358E+02
      6.897  0.7339E+01  0.8546E+02
      7.082  0.7066E+01  0.8707E+02
      7.266  0.1460E+02  0.8890E+02
      7.451  0.1093E+02  0.9093E+02
      7.635  0.1759E+01  0.9190E+02
      7.820  0.8762E+00  0.9205E+02
      8.005  0.2701E+01  0.9238E+02
      8.189  0.7335E+01  0.9319E+02
      8.374  0.1023E+02  0.9462E+02
      8.558  0.2977E+01  0.9556E+02
      8.743  0.1097E+01  0.9595E+02
      8.927  0.0000E+00  0.9600E+02
      9.112  0.0000E+00  0.9600E+02
      9.296  0.0000E+00  0.9600E+02
      9.481  0.0000E+00  0.9600E+02
      9.665  0.0000E+00  0.9600E+02
      9.850  0.0000E+00  0.9600E+02
     10.034  0.0000E+00  0.9600E+02
     10.219  0.0000E+00  0.9600E+02
     10.403  0.0000E+00  0.9600E+02
     10.588  0.0000E+00  0.9600E+02
     10.772  0.0000E+00  0.9600E+02
     10.957  0.0000E+00  0.9600E+02
     11.141  0.0000E+00  0.9600E+02
     11.326  0.0000E+00  0.9600E+02
