       N       E                     dE             d eps       ncg     rms          rms(c)
DAV:   1     0.502331420049E+03    0.50233E+03   -0.28401E+04   768   0.130E+03
DAV:   2    -0.663709826891E+01   -0.50897E+03   -0.48448E+03   904   0.308E+02
DAV:   3    -0.684225060157E+02   -0.61785E+02   -0.61210E+02  1080   0.956E+01
DAV:   4    -0.760787369662E+02   -0.76562E+01   -0.76172E+01  1408   0.319E+01
DAV:   5    -0.768776645422E+02   -0.79893E+00   -0.79878E+00  1128   0.738E+00    0.233E+01
RMM:   6    -0.744742175198E+02    0.24034E+01   -0.63794E+00   903   0.605E+00    0.152E+01
RMM:   7    -0.739707232797E+02    0.50349E+00   -0.34856E+00   946   0.473E+00    0.412E+00
RMM:   8    -0.738761307894E+02    0.94592E-01   -0.22485E-01  1090   0.157E+00    0.621E-01
RMM:   9    -0.738703909549E+02    0.57398E-02   -0.40766E-02  1081   0.604E-01    0.242E-01
RMM:  10    -0.738705132902E+02   -0.12234E-03   -0.79989E-03  1307   0.247E-01    0.145E-01
RMM:  11    -0.738707584427E+02   -0.24515E-03   -0.30263E-03  1226   0.129E-01    0.486E-02
RMM:  12    -0.738708656322E+02   -0.10719E-03   -0.13656E-03  1180   0.897E-02    0.256E-02
RMM:  13    -0.738709193706E+02   -0.53738E-04   -0.63338E-04   903   0.596E-02    0.866E-03
RMM:  14    -0.738709425690E+02   -0.23198E-04   -0.29694E-04   923   0.487E-02    0.528E-03
RMM:  15    -0.738709570097E+02   -0.14441E-04   -0.17541E-04   805   0.391E-02
   1 F= -.73870957E+02 E0= -.73870957E+02  d E =0.000000E+00
