 vasp.5.4.4.18Apr17-6-g9f103f2a35 (build Feb 28 2020 14:15:47) complex          
  
 executed on             LinuxIFC date 2022.08.07  20:43:29
 running on   64 total cores
 distrk:  each k-point on   64 cores,    1 groups
 distr:  one band on NCORES_PER_BAND=  16 cores,    4 groups


--------------------------------------------------------------------------------------------------------


 INCAR:
 POTCAR:    PAW P 26Mar2009                       
 POTCAR:    PAW S 27Mar2009                       
 POTCAR:    PAW Li_sv 10Sep2004                   
 POTCAR:    PAW P 26Mar2009                       
   VRHFIN =P : s2p3                                                             
   LEXCH  = CA                                                                  
   EATOM  =   176.5121 eV,   12.9733 Ry                                         
                                                                                
   TITEL  = PAW P 26Mar2009                                                     
   LULTRA =        F    use ultrasoft PP ?                                      
   IUNSCR =        1    unscreen: 0-lin 1-nonlin 2-no                           
   RPACOR =    1.500    partial core radius                                     
   POMASS =   30.974; ZVAL   =    5.000    mass and valenz                      
   RCORE  =    1.900    outmost cutoff radius                                   
   RWIGS  =    2.330; RWIGS  =    1.233    wigner-seitz radius (au A)           
   ENMAX  =  255.155; ENMIN  =  191.366 eV                                      
   ICORE  =        2    local potential                                         
   LCOR   =        T    correct aug charges                                     
   LPAW   =        T    paw PP                                                  
   EAUG   =  342.924                                                            
   DEXC   =    0.000                                                            
   RMAX   =    1.935    core radius for proj-oper                               
   RAUG   =    1.300    factor for augmentation sphere                          
   RDEP   =    1.931    radius for radial grids                                 
   RDEPT  =    1.780    core radius for aug-charge                              
                                                                                
   Atomic configuration                                                         
    6 entries                                                                   
     n  l   j            E        occ.                                          
     1  0  0.50     -2072.7761   2.0000                                         
     2  0  0.50      -172.9483   2.0000                                         
     2  1  1.50      -124.4644   6.0000                                         
     3  0  0.50       -14.0086   2.0000                                         
     3  1  0.50        -5.6037   3.0000                                         
     3  2  1.50        -6.8029   0.0000                                         
   Description                                                                  
     l       E           TYP  RCUT    TYP  RCUT                                 
     0    -14.0086211     23  1.900                                             
     0    -11.8189335     23  1.900                                             
     1     -5.6037292     23  1.900                                             
     1     -0.3527308     23  1.900                                             
     2     -6.8029130     23  1.900                                             
  local pseudopotential read in
  partial core-charges read in
  partial kinetic energy density read in
  atomic valenz-charges read in
  non local Contribution for L=           0  read in
    real space projection operators read in
  non local Contribution for L=           0  read in
    real space projection operators read in
  non local Contribution for L=           1  read in
    real space projection operators read in
  non local Contribution for L=           1  read in
    real space projection operators read in
    PAW grid and wavefunctions read in
 
   number of l-projection  operators is LMAX  =           4
   number of lm-projection operators is LMMAX =           8
 
 POTCAR:    PAW S 27Mar2009                       
   VRHFIN =S : s2p4                                                             
   LEXCH  = CA                                                                  
   EATOM  =   277.3745 eV,   20.3864 Ry                                         
                                                                                
   TITEL  = PAW S 27Mar2009                                                     
   LULTRA =        F    use ultrasoft PP ?                                      
   IUNSCR =        1    unscreen: 0-lin 1-nonlin 2-no                           
   RPACOR =    1.500    partial core radius                                     
   POMASS =   32.066; ZVAL   =    6.000    mass and valenz                      
   RCORE  =    1.900    outmost cutoff radius                                   
   RWIGS  =    2.200; RWIGS  =    1.164    wigner-seitz radius (au A)           
   ENMAX  =  258.602; ENMIN  =  193.952 eV                                      
   ICORE  =        2    local potential                                         
   LCOR   =        T    correct aug charges                                     
   LPAW   =        T    paw PP                                                  
   EAUG   =  335.092                                                            
   DEXC   =    0.000                                                            
   RMAX   =    1.942    core radius for proj-oper                               
   RAUG   =    1.300    factor for augmentation sphere                          
   RDEP   =    1.954    radius for radial grids                                 
   RDEPT  =    1.744    core radius for aug-charge                              
                                                                                
   Atomic configuration                                                         
    6 entries                                                                   
     n  l   j            E        occ.                                          
     1  0  0.50     -2393.1495   2.0000                                         
     2  0  0.50      -210.5411   2.0000                                         
     2  1  1.50      -156.4410   6.0000                                         
     3  0  0.50       -17.2664   2.0000                                         
     3  1  0.50        -7.1129   4.0000                                         
     3  2  1.50        -8.1635   0.0000                                         
   Description                                                                  
     l       E           TYP  RCUT    TYP  RCUT                                 
     0    -17.2664422     23  1.900                                             
     0    -15.8420823     23  1.900                                             
     1     -7.1129072     23  1.900                                             
     1     -2.8398274     23  1.900                                             
     2     -8.1634956     23  1.900                                             
  local pseudopotential read in
  partial core-charges read in
  partial kinetic energy density read in
  atomic valenz-charges read in
  non local Contribution for L=           0  read in
    real space projection operators read in
  non local Contribution for L=           0  read in
    real space projection operators read in
  non local Contribution for L=           1  read in
    real space projection operators read in
  non local Contribution for L=           1  read in
    real space projection operators read in
    PAW grid and wavefunctions read in
 
   number of l-projection  operators is LMAX  =           4
   number of lm-projection operators is LMMAX =           8
 
 POTCAR:    PAW Li_sv 10Sep2004                   
   VRHFIN =Li: 1s2s                                                             
   LEXCH  = CA                                                                  
   EATOM  =   199.5738 eV,   14.6683 Ry                                         
                                                                                
   TITEL  = PAW Li_sv 10Sep2004                                                 
   LULTRA =        F    use ultrasoft PP ?                                      
   IUNSCR =        0    unscreen: 0-lin 1-nonlin 2-no                           
   RPACOR =    0.000    partial core radius                                     
   POMASS =    7.010; ZVAL   =    3.000    mass and valenz                      
   RCORE  =    1.700    outmost cutoff radius                                   
   RWIGS  =    2.050; RWIGS  =    1.085    wigner-seitz radius (au A)           
   ENMAX  =  498.387; ENMIN  =  373.790 eV                                      
   ICORE  =        2    local potential                                         
   LCOR   =        T    correct aug charges                                     
   LPAW   =        T    paw PP                                                  
   EAUG   =  628.945                                                            
   RMAX   =    1.732    core radius for proj-oper                               
   RAUG   =    1.300    factor for augmentation sphere                          
   RDEP   =    1.728    radius for radial grids                                 
   RDEPT  =    1.329    core radius for aug-charge                              
                                                                                
   Atomic configuration                                                         
    4 entries                                                                   
     n  l   j            E        occ.                                          
     1  0  0.50       -51.0884   2.0000                                         
     2  0  0.50        -2.8766   1.0000                                         
     2  1  0.50        -2.8708   0.0000                                         
     3  2  1.50        -1.3606   0.0000                                         
   Description                                                                  
     l       E           TYP  RCUT    TYP  RCUT                                 
     0    -51.0884324     23  1.400                                             
     0     -2.8766458     23  1.700                                             
     1     -2.8708293     23  1.400                                             
     2     -1.3605826     23  1.400                                             
  local pseudopotential read in
  atomic valenz-charges read in
  non local Contribution for L=           0  read in
    real space projection operators read in
  non local Contribution for L=           0  read in
    real space projection operators read in
  non local Contribution for L=           1  read in
    real space projection operators read in
    PAW grid and wavefunctions read in
 
   number of l-projection  operators is LMAX  =           3
   number of lm-projection operators is LMMAX =           5
 
 Optimization of the real space projectors (new method)

 maximal supplied QI-value         = 19.84
 optimisation between [QCUT,QGAM] = [ 10.32, 20.83] = [ 29.81,121.55] Ry 
 Optimized for a Real-space Cutoff    1.39 Angstroem

   l    n(q)    QCUT    max X(q) W(low)/X(q) W(high)/X(q)  e(spline) 
   0      9    10.318   158.476    0.64E-04    0.80E-04    0.60E-07
   0      9    10.318   128.097    0.63E-04    0.79E-04    0.60E-07
   1      8    10.318    73.217    0.18E-03    0.19E-03    0.20E-06
   1      8    10.318    48.248    0.18E-03    0.19E-03    0.19E-06
 Optimization of the real space projectors (new method)

 maximal supplied QI-value         = 19.84
 optimisation between [QCUT,QGAM] = [ 10.32, 20.83] = [ 29.81,121.55] Ry 
 Optimized for a Real-space Cutoff    1.39 Angstroem

   l    n(q)    QCUT    max X(q) W(low)/X(q) W(high)/X(q)  e(spline) 
   0      9    10.318   180.455    0.73E-04    0.81E-04    0.62E-07
   0      9    10.318   157.733    0.72E-04    0.81E-04    0.62E-07
   1      8    10.318    66.201    0.18E-03    0.20E-03    0.20E-06
   1      8    10.318    49.617    0.18E-03    0.20E-03    0.20E-06
 Optimization of the real space projectors (new method)

 maximal supplied QI-value         = 22.11
 optimisation between [QCUT,QGAM] = [ 10.39, 20.78] = [ 30.24,120.96] Ry 
 Optimized for a Real-space Cutoff    1.20 Angstroem

   l    n(q)    QCUT    max X(q) W(low)/X(q) W(high)/X(q)  e(spline) 
   0      7    10.392    10.443    0.77E-04    0.41E-05    0.30E-07
   0      7    10.392     8.514    0.20E-03    0.36E-04    0.67E-07
   1      7    10.392     5.406    0.20E-03    0.20E-03    0.12E-06
  PAW P 26Mar2009                       :
 energy of atom  1       EATOM= -176.5121
 kinetic energy error for atom=    0.0021 (will be added to EATOM!!)
  PAW S 27Mar2009                       :
 energy of atom  2       EATOM= -277.3745
 kinetic energy error for atom=    0.0041 (will be added to EATOM!!)
  PAW Li_sv 10Sep2004                   :
 energy of atom  3       EATOM= -199.5738
 kinetic energy error for atom=    0.0564 (will be added to EATOM!!)
 
 
 POSCAR: Good luck                               
  positions in cartesian coordinates
  No initial velocities read in
 exchange correlation table for  LEXCH =        2
   RHO(1)=    0.500       N(1)  =     2000
   RHO(2)=  100.500       N(2)  =     4000
 


--------------------------------------------------------------------------------------------------------


 ion  position               nearest neighbor table
   1  0.000  0.754  0.275-   9 2.00   7 2.05   6 2.06   3 2.06
   2  0.500  0.246  0.775-  10 2.00   8 2.05   4 2.06   5 2.06
   3  0.231  0.542  0.247-   1 2.06  14 2.31  13 2.50  12 2.59  11 2.62
   4  0.269  0.458  0.747-   2 2.06  13 2.31  14 2.50  11 2.59  12 2.62
   5  0.731  0.458  0.747-   2 2.06  16 2.31  15 2.50  11 2.59  12 2.62
   6  0.769  0.542  0.247-   1 2.06  15 2.31  16 2.50  12 2.59  11 2.62
   7  0.000  0.940  0.021-   1 2.05  16 2.27  13 2.27  11 2.49
   8  0.500  0.060  0.521-   2 2.05  14 2.27  15 2.27  12 2.49
   9  0.000  0.943  0.519-   1 2.00  15 2.26  14 2.26
  10  0.500  0.057  0.019-   2 2.00  13 2.26  16 2.26
  11  0.000  0.376  0.986-   7 2.49   5 2.59   4 2.59   6 2.62   3 2.62
  12  0.500  0.624  0.486-   8 2.49   3 2.59   6 2.59   4 2.62   5 2.62
  13  0.283  0.781  0.950-  10 2.26   7 2.27   4 2.31   3 2.50
  14  0.217  0.219  0.450-   9 2.26   8 2.27   3 2.31   4 2.50
  15  0.783  0.219  0.450-   9 2.26   8 2.27   6 2.31   5 2.50
  16  0.717  0.781  0.950-  10 2.26   7 2.27   5 2.31   6 2.50
 
  LATTYP: Found a simple orthorhombic cell.
 ALAT       =     5.6824275100
 B/A-ratio  =     1.2189078024
 C/A-ratio  =     1.2611752619
  
  Lattice vectors:
  
 A1 = (   0.0000000000,   5.6824275100,   0.0000000000)
 A2 = (   0.0000000000,   0.0000000000,  -6.9263552283)
 A3 = (  -7.1665370034,   0.0000000000,   0.0000000000)


Analysis of symmetry for initial positions (statically):
=====================================================================
 Subroutine PRICEL returns:
 Original cell was already a primitive cell.
 

 Routine SETGRP: Setting up the symmetry group for a 
 simple orthorhombic supercell.


 Subroutine GETGRP returns: Found  4 space group operations
 (whereof  2 operations were pure point group operations)
 out of a pool of  8 trial point group operations.


The static configuration has the point symmetry C_1h.
 The point group associated with its full space group is C_2v.


Analysis of symmetry for dynamics (positions and initial velocities):
=====================================================================
 Subroutine PRICEL returns:
 Original cell was already a primitive cell.
 

 Routine SETGRP: Setting up the symmetry group for a 
 simple orthorhombic supercell.


 Subroutine GETGRP returns: Found  4 space group operations
 (whereof  2 operations were pure point group operations)
 out of a pool of  8 trial point group operations.


The dynamic configuration has the point symmetry C_1h.
 The point group associated with its full space group is C_2v.


 Subroutine INISYM returns: Found  4 space group operations
 (whereof  2 operations are pure point group operations),
 and found     1 'primitive' translations

 
 
 KPOINTS: Automatic mesh                          

Automatic generation of k-mesh.
Space group operators:
 irot       det(A)        alpha          n_x          n_y          n_z        tau_x        tau_y        tau_z
    1     1.000000     0.000001     1.000000     0.000000     0.000000     0.000000     0.000000     0.000000
    2    -1.000000   179.999999     1.000000     0.000000     0.000000     0.000000     0.000000     0.000000
    3     1.000000   180.000000     0.000000     0.000000     1.000000    -0.500000     0.000000    -0.500000
    4    -1.000000   180.000000     0.000000     1.000000     0.000000    -0.500000     0.000000    -0.500000
 
 Subroutine IBZKPT returns following result:
 ===========================================
 
 Found      8 irreducible k-points:
 
 Following reciprocal coordinates:
            Coordinates               Weight
  0.000000  0.000000  0.000000      1.000000
  0.333333  0.000000  0.000000      2.000000
  0.000000  0.333333  0.000000      2.000000
  0.333333  0.333333  0.000000      4.000000
  0.000000  0.000000  0.333333      2.000000
  0.333333  0.000000  0.333333      4.000000
  0.000000  0.333333  0.333333      4.000000
  0.333333  0.333333  0.333333      8.000000
 
 Following cartesian coordinates:
            Coordinates               Weight
  0.000000  0.000000  0.000000      1.000000
  0.046512  0.000000  0.000000      2.000000
  0.000000  0.058660  0.000000      2.000000
  0.046512  0.058660  0.000000      4.000000
  0.000000  0.000000  0.048125      2.000000
  0.046512  0.000000  0.048125      4.000000
  0.000000  0.058660  0.048125      4.000000
  0.046512  0.058660  0.048125      8.000000
 
 TETIRR: Found     70 inequivalent tetrahedra from      162


--------------------------------------------------------------------------------------------------------




 Dimension of arrays:
   k-points           NKPTS =      8   k-points in BZ     NKDIM =      8   number of bands    NBANDS=     48
   number of dos      NEDOS =    301   number of ions     NIONS =     16
   non local maximal  LDIM  =      4   non local SUM 2l+1 LMDIM =      8
   total plane-waves  NPLWV =  92160
   max r-space proj   IRMAX =   3707   max aug-charges    IRDMAX=  10492
   dimension x,y,z NGX =    48 NGY =   40 NGZ =   48
   dimension x,y,z NGXF=    96 NGYF=   80 NGZF=   96
   support grid    NGXF=    96 NGYF=   80 NGZF=   96
   ions per type =               2   8   6
   NGX,Y,Z   is equivalent  to a cutoff of  11.13, 11.70, 11.52 a.u.
   NGXF,Y,Z  is equivalent  to a cutoff of  22.27, 23.40, 23.04 a.u.

 SYSTEM =  unknown system                          
 POSCAR =  Good luck                               

 Startparameter for this run:
   NWRITE =      2    write-flag & timer
   PREC   = accura    normal or accurate (medium, high low for compatibility)
   ISTART =      0    job   : 0-new  1-cont  2-samecut
   ICHARG =      2    charge: 1-file 2-atom 10-const
   ISPIN  =      1    spin polarized calculation?
   LNONCOLLINEAR =      F non collinear calculations
   LSORBIT =      F    spin-orbit coupling
   INIWAV =      1    electr: 0-lowe 1-rand  2-diag
   LASPH  =      F    aspherical Exc in radial PAW
   METAGGA=      F    non-selfconsistent MetaGGA calc.

 Electronic Relaxation 1
   ENCUT  =  420.0 eV  30.87 Ry    5.56 a.u.  11.98  9.50 11.57*2*pi/ulx,y,z
   ENINI  =  420.0     initial cutoff
   ENAUG  =  628.9 eV  augmentation charge cutoff
   NELM   =    100;   NELMIN=  2; NELMDL= -5     # of ELM steps 
   EDIFF  = 0.2E-04   stopping-criterion for ELM
   LREAL  =      T    real-space projection
   NLSPLINE    = F    spline interpolate recip. space projectors
   LCOMPAT=      F    compatible to vasp.4.4
   GGA_COMPAT  = T    GGA compatible to vasp.4.4-vasp.4.6
   LMAXPAW     = -100 max onsite density
   LMAXMIX     =    2 max onsite mixed and CHGCAR
   VOSKOWN=      0    Vosko Wilk Nusair interpolation
   ROPT   =   -0.00025  -0.00025  -0.00025
 Ionic relaxation
   EDIFFG = 0.2E-03   stopping-criterion for IOM
   NSW    =      0    number of steps for IOM
   NBLOCK =      1;   KBLOCK =      1    inner block; outer block 
   IBRION =     -1    ionic relax: 0-MD 1-quasi-New 2-CG
   NFREE  =      1    steps in history (QN), initial steepest desc. (CG)
   ISIF   =      7    stress and relaxation
   IWAVPR =     10    prediction:  0-non 1-charg 2-wave 3-comb
   ISYM   =      2    0-nonsym 1-usesym 2-fastsym
   LCORR  =      T    Harris-Foulkes like correction to forces

   POTIM  = 0.5000    time-step for ionic-motion
   TEIN   =    0.0    initial temperature
   TEBEG  =    0.0;   TEEND  =   0.0 temperature during run
   SMASS  =  -3.00    Nose mass-parameter (am)
   estimated Nose-frequenzy (Omega)   =  0.10E-29 period in steps =****** mass=  -0.117E-26a.u.
   SCALEE = 1.0000    scale energy and forces
   NPACO  =    256;   APACO  = 16.0  distance and # of slots for P.C.
   PSTRESS=    0.0 pullay stress

  Mass of Ions in am
   POMASS =  30.97 32.07  7.01
  Ionic Valenz
   ZVAL   =   5.00  6.00  3.00
  Atomic Wigner-Seitz radii
   RWIGS  =  -1.00 -1.00 -1.00
  virtual crystal weights 
   VCA    =   1.00  1.00  1.00
   NELECT =      76.0000    total number of electrons
   NUPDOWN=      -1.0000    fix difference up-down

 DOS related values:
   EMIN   =  10.00;   EMAX   =-10.00  energy-range for DOS
   EFERMI =   0.00
   ISMEAR =    -5;   SIGMA  =   0.20  broadening in eV -4-tet -1-fermi 0-gaus

 Electronic relaxation 2 (details)
   IALGO  =     68    algorithm
   LDIAG  =      T    sub-space diagonalisation (order eigenvalues)
   LSUBROT=      F    optimize rotation matrix (better conditioning)
   TURBO    =      0    0=normal 1=particle mesh
   IRESTART =      0    0=no restart 2=restart with 2 vectors
   NREBOOT  =      0    no. of reboots
   NMIN     =      0    reboot dimension
   EREF     =   0.00    reference energy to select bands
   IMIX   =      4    mixing-type and parameters
     AMIX     =   0.40;   BMIX     =  1.00
     AMIX_MAG =   1.60;   BMIX_MAG =  1.00
     AMIN     =   0.10
     WC   =   100.;   INIMIX=   1;  MIXPRE=   1;  MAXMIX= -45

 Intra band minimization:
   WEIMIN = 0.0000     energy-eigenvalue tresh-hold
   EBREAK =  0.10E-06  absolut break condition
   DEPER  =   0.30     relativ break condition  

   TIME   =   0.40     timestep for ELM

  volume/ion in A,a.u.               =      17.63       118.97
  Fermi-wavevector in a.u.,A,eV,Ry     =   1.057377  1.998154 15.211953  1.118047
  Thomas-Fermi vector in A             =   2.192648
 
 Write flags
   LWAVE        =      F    write WAVECAR
   LDOWNSAMPLE  =      F    k-point downsampling of WAVECAR
   LCHARG       =      F    write CHGCAR
   LVTOT        =      F    write LOCPOT, total local potential
   LVHAR        =      F    write LOCPOT, Hartree potential only
   LELF         =      F    write electronic localiz. function (ELF)
   LORBIT       =      0    0 simple, 1 ext, 2 COOP (PROOUT), +10 PAW based schemes


 Dipole corrections
   LMONO  =      F    monopole corrections only (constant potential shift)
   LDIPOL =      F    correct potential (dipole corrections)
   IDIPOL =      0    1-x, 2-y, 3-z, 4-all directions 
   EPSILON=  1.0000000 bulk dielectric constant

 Exchange correlation treatment:
   GGA     =    --    GGA type
   LEXCH   =     2    internal setting for exchange type
   VOSKOWN=      0    Vosko Wilk Nusair interpolation
   LHFCALC =     F    Hartree Fock is set to
   LHFONE  =     F    Hartree Fock one center treatment
   AEXX    =    0.0000 exact exchange contribution

 Linear response parameters
   LEPSILON=     F    determine dielectric tensor
   LRPA    =     F    only Hartree local field effects (RPA)
   LNABLA  =     F    use nabla operator in PAW spheres
   LVEL    =     F    velocity operator in full k-point grid
   LINTERFAST=   F  fast interpolation
   KINTER  =     0    interpolate to denser k-point grid
   CSHIFT  =0.1000    complex shift for real part using Kramers Kronig
   OMEGAMAX=  -1.0    maximum frequency
   DEG_THRESHOLD= 0.2000000E-02 threshold for treating states as degnerate
   RTIME   =   -0.100 relaxation time in fs
  (WPLASMAI=    0.000 imaginary part of plasma frequency in eV, 0.658/RTIME)
   DFIELD  = 0.0000000 0.0000000 0.0000000 field for delta impulse in time
 
 Orbital magnetization related:
   ORBITALMAG=     F  switch on orbital magnetization
   LCHIMAG   =     F  perturbation theory with respect to B field
   DQ        =  0.001000  dq finite difference perturbation B field
   LLRAUG    =     F  two centre corrections for induced B field



--------------------------------------------------------------------------------------------------------


 Static calculation
 charge density and potential will be updated during run
 non-spin polarized calculation
 RMM-DIIS sequential band-by-band and
  variant of blocked Davidson during initial phase
 perform sub-space diagonalisation
    before iterative eigenvector-optimisation
 modified Broyden-mixing scheme, WC =      100.0
 initial mixing is a Kerker type mixing with AMIX =  0.4000 and BMIX =      1.0000
 Hartree-type preconditioning will be used
 using additional bands           10
 real space projection scheme for non local part
 use partial core corrections
 calculate Harris-corrections to forces 
   (improved forces if not selfconsistent)
 use of overlap-Matrix (Vanderbilt PP)
 Fermi weights with tetrahedron method with Bloechl corrections


--------------------------------------------------------------------------------------------------------


  energy-cutoff  :      420.00
  volume of cell :      282.06
      direct lattice vectors                 reciprocal lattice vectors
     7.166537003  0.000000000  0.000000000     0.139537408  0.000000000  0.000000000
     0.000000000  5.682427510  0.000000000     0.000000000  0.175981127  0.000000000
     0.000000000  0.000000000  6.926355228     0.000000000  0.000000000  0.144376078

  length of vectors
     7.166537003  5.682427510  6.926355228     0.139537408  0.175981127  0.144376078


 
 k-points in units of 2pi/SCALE and weight: Automatic mesh                          
   0.00000000  0.00000000  0.00000000       0.037
   0.04651247  0.00000000  0.00000000       0.074
   0.00000000  0.05866038  0.00000000       0.074
   0.04651247  0.05866038  0.00000000       0.148
   0.00000000  0.00000000  0.04812536       0.074
   0.04651247  0.00000000  0.04812536       0.148
   0.00000000  0.05866038  0.04812536       0.148
   0.04651247  0.05866038  0.04812536       0.296
 
 k-points in reciprocal lattice and weights: Automatic mesh                          
   0.00000000  0.00000000  0.00000000       0.037
   0.33333333  0.00000000  0.00000000       0.074
   0.00000000  0.33333333  0.00000000       0.074
   0.33333333  0.33333333  0.00000000       0.148
   0.00000000  0.00000000  0.33333333       0.074
   0.33333333  0.00000000  0.33333333       0.148
   0.00000000  0.33333333  0.33333333       0.148
   0.33333333  0.33333333  0.33333333       0.296
 
 position of ions in fractional coordinates (direct lattice) 
   0.00000000  0.75355612  0.27501048
   0.50000000  0.24644388  0.77501048
   0.23094519  0.54151807  0.24709611
   0.26905481  0.45848193  0.74709611
   0.73094519  0.45848193  0.74709611
   0.76905481  0.54151807  0.24709611
   0.00000000  0.93980624  0.02130888
   0.50000000  0.06019376  0.52130888
   0.00000000  0.94255803  0.51891291
   0.50000000  0.05744197  0.01891291
   0.00000000  0.37599568  0.98640183
   0.50000000  0.62400432  0.48640183
   0.28297476  0.78102388  0.94981368
   0.21702524  0.21897612  0.44981368
   0.78297476  0.21897612  0.44981368
   0.71702524  0.78102388  0.94981368
 
 position of ions in cartesian coordinates  (Angst):
   0.00000000  4.28202803  1.90482028
   3.58326850  1.40039948  5.36799790
   1.65507723  3.07713718  1.71147544
   1.92819127  2.60529033  5.17465305
   5.23834574  2.60529033  5.17465305
   5.51145977  3.07713718  1.71147544
   0.00000000  5.34038081  0.14759289
   3.58326850  0.34204670  3.61077050
   0.00000000  5.35601766  3.59417514
   3.58326850  0.32640985  0.13099753
   0.00000000  2.13656817  6.83216950
   3.58326850  3.54585934  3.36899189
   2.02794907  4.43811157  6.57874697
   1.55531943  1.24431594  3.11556936
   5.61121757  1.24431594  3.11556936
   5.13858793  4.43811157  6.57874697
 


--------------------------------------------------------------------------------------------------------


 k-point  1 :   0.0000 0.0000 0.0000  plane waves:    5507
 k-point  2 :   0.3333 0.0000 0.0000  plane waves:    5508
 k-point  3 :   0.0000 0.3333 0.0000  plane waves:    5509
 k-point  4 :   0.3333 0.3333 0.0000  plane waves:    5533
 k-point  5 :   0.0000 0.0000 0.3333  plane waves:    5499
 k-point  6 :   0.3333 0.0000 0.3333  plane waves:    5527
 k-point  7 :   0.0000 0.3333 0.3333  plane waves:    5496
 k-point  8 :   0.3333 0.3333 0.3333  plane waves:    5504

 maximum and minimum number of plane-waves per node :       360      329

 maximum number of plane-waves:      5533
 maximum index in each direction: 
   IXMAX=   11   IYMAX=    9   IZMAX=   11
   IXMIN=  -12   IYMIN=   -9   IZMIN=  -11


 real space projection operators:
  total allocation   :       2750.56 KBytes
  max/ min on nodes  :        175.39        169.51


 parallel 3D FFT for wavefunctions:
    minimum data exchange during FFTs selected (reduces bandwidth)
 parallel 3D FFT for charge:
    minimum data exchange during FFTs selected (reduces bandwidth)


 total amount of memory used by VASP MPI-rank0    33674. kBytes
=======================================================================

   base      :      30000. kBytes
   nonlr-proj:       1208. kBytes
   fftplans  :        681. kBytes
   grid      :       1230. kBytes
   one-center:          3. kBytes
   wavefun   :        552. kBytes
 
     INWAV:  cpu time    0.0000: real time    0.0000
 Broyden mixing: mesh for mixing (old mesh)
   NGX = 23   NGY = 19   NGZ = 23
  (NGX  = 96   NGY  = 80   NGZ  = 96)
  gives a total of  10051 points

 initial charge density was supplied:
 charge density of overlapping atoms calculated
 number of electron      76.0000000 magnetization 
 keeping initial charge density in first step


--------------------------------------------------------------------------------------------------------


 Maximum index for non-local projection operator          290
 Maximum index for augmentation-charges          579 (set IRDMAX)


--------------------------------------------------------------------------------------------------------


 First call to EWALD:  gamma=   0.270
 Maximum number of real-space cells 3x 3x 3
 Maximum number of reciprocal cells 3x 2x 3

    FEWALD:  cpu time    0.0021: real time    0.0021


--------------------------------------- Iteration      1(   1)  ---------------------------------------


    POTLOK:  cpu time    0.0068: real time    0.0093
    SETDIJ:  cpu time    0.0040: real time    0.0046
     EDDAV:  cpu time    0.1910: real time    0.2005
 BZINTS: Fermi energy: 15.045833; 76.000000 electrons
         Band energy:-114.223045;  BLOECHL correction: -0.054798
       DOS:  cpu time    0.0041: real time    0.0045
    --------------------------------------------
      LOOP:  cpu time    0.2059: real time    0.2189

 eigenvalue-minimisations  :   768
 total energy-change (2. order) : 0.4968569E+03  (-0.2819742E+04)
 number of electron      76.0000000 magnetization 
 augmentation part       76.0000000 magnetization 

 Free energy of the ion-electron system (eV)
  ---------------------------------------------------
  alpha Z        PSCENC =        69.95909506
  Ewald energy   TEWEN  =     -2741.94693423
  -Hartree energ DENC   =      -621.32517720
  -exchange      EXHF   =         0.00000000
  -V(xc)+E(xc)   XCENC  =       182.20289015
  PAW double counting   =      2494.22442938    -2541.12215007
  entropy T*S    EENTRO =         0.00000000
  eigenvalues    EBANDS =      -114.22304485
  atomic energy  EATOM  =      3769.08782378
  Solvation  Ediel_sol  =         0.00000000
  ---------------------------------------------------
  free energy    TOTEN  =       496.85693202 eV

  energy without entropy =      496.85693202  energy(sigma->0) =      496.85693202


--------------------------------------------------------------------------------------------------------




--------------------------------------- Iteration      1(   2)  ---------------------------------------


     EDDAV:  cpu time    0.1920: real time    0.1924
 BZINTS: Fermi energy:  4.294638; 76.000000 electrons
         Band energy:-621.746089;  BLOECHL correction:  0.000000
       DOS:  cpu time    0.0007: real time    0.0007
    --------------------------------------------
      LOOP:  cpu time    0.1927: real time    0.1931

 eigenvalue-minimisations  :   912
 total energy-change (2. order) :-0.5075230E+03  (-0.4830784E+03)
 number of electron      76.0000000 magnetization 
 augmentation part       76.0000000 magnetization 

 Free energy of the ion-electron system (eV)
  ---------------------------------------------------
  alpha Z        PSCENC =        69.95909506
  Ewald energy   TEWEN  =     -2741.94693423
  -Hartree energ DENC   =      -621.32517720
  -exchange      EXHF   =         0.00000000
  -V(xc)+E(xc)   XCENC  =       182.20289015
  PAW double counting   =      2494.22442938    -2541.12215007
  entropy T*S    EENTRO =         0.00000000
  eigenvalues    EBANDS =      -621.74608949
  atomic energy  EATOM  =      3769.08782378
  Solvation  Ediel_sol  =         0.00000000
  ---------------------------------------------------
  free energy    TOTEN  =       -10.66611262 eV

  energy without entropy =      -10.66611262  energy(sigma->0) =      -10.66611262


--------------------------------------------------------------------------------------------------------




--------------------------------------- Iteration      1(   3)  ---------------------------------------


     EDDAV:  cpu time    0.2163: real time    0.2163
 BZINTS: Fermi energy:  2.310219; 76.000000 electrons
         Band energy:-682.621711;  BLOECHL correction:  0.000000
       DOS:  cpu time    0.0008: real time    0.0008
    --------------------------------------------
      LOOP:  cpu time    0.2171: real time    0.2171

 eigenvalue-minimisations  :  1056
 total energy-change (2. order) :-0.6087562E+02  (-0.6035540E+02)
 number of electron      76.0000000 magnetization 
 augmentation part       76.0000000 magnetization 

 Free energy of the ion-electron system (eV)
  ---------------------------------------------------
  alpha Z        PSCENC =        69.95909506
  Ewald energy   TEWEN  =     -2741.94693423
  -Hartree energ DENC   =      -621.32517720
  -exchange      EXHF   =         0.00000000
  -V(xc)+E(xc)   XCENC  =       182.20289015
  PAW double counting   =      2494.22442938    -2541.12215007
  entropy T*S    EENTRO =         0.00000000
  eigenvalues    EBANDS =      -682.62171138
  atomic energy  EATOM  =      3769.08782378
  Solvation  Ediel_sol  =         0.00000000
  ---------------------------------------------------
  free energy    TOTEN  =       -71.54173450 eV

  energy without entropy =      -71.54173450  energy(sigma->0) =      -71.54173450


--------------------------------------------------------------------------------------------------------




--------------------------------------- Iteration      1(   4)  ---------------------------------------


     EDDAV:  cpu time    0.2676: real time    0.2676
 BZINTS: Fermi energy:  2.176240; 76.000000 electrons
         Band energy:-689.711609;  BLOECHL correction:  0.000000
       DOS:  cpu time    0.0008: real time    0.0008
    --------------------------------------------
      LOOP:  cpu time    0.2684: real time    0.2684

 eigenvalue-minimisations  :  1416
 total energy-change (2. order) :-0.7089897E+01  (-0.7066925E+01)
 number of electron      76.0000000 magnetization 
 augmentation part       76.0000000 magnetization 

 Free energy of the ion-electron system (eV)
  ---------------------------------------------------
  alpha Z        PSCENC =        69.95909506
  Ewald energy   TEWEN  =     -2741.94693423
  -Hartree energ DENC   =      -621.32517720
  -exchange      EXHF   =         0.00000000
  -V(xc)+E(xc)   XCENC  =       182.20289015
  PAW double counting   =      2494.22442938    -2541.12215007
  entropy T*S    EENTRO =         0.00000000
  eigenvalues    EBANDS =      -689.71160855
  atomic energy  EATOM  =      3769.08782378
  Solvation  Ediel_sol  =         0.00000000
  ---------------------------------------------------
  free energy    TOTEN  =       -78.63163168 eV

  energy without entropy =      -78.63163168  energy(sigma->0) =      -78.63163168


--------------------------------------------------------------------------------------------------------




--------------------------------------- Iteration      1(   5)  ---------------------------------------


     EDDAV:  cpu time    0.2289: real time    0.2289
 BZINTS: Fermi energy:  2.244222; 76.000000 electrons
         Band energy:-690.521814;  BLOECHL correction:  0.000000
       DOS:  cpu time    0.0009: real time    0.0009
    CHARGE:  cpu time    0.0170: real time    0.0171
    MIXING:  cpu time    0.0010: real time    0.0019
    --------------------------------------------
      LOOP:  cpu time    0.2477: real time    0.2488

 eigenvalue-minimisations  :  1112
 total energy-change (2. order) :-0.8102059E+00  (-0.8100378E+00)
 number of electron      76.0000005 magnetization 
 augmentation part       -1.8484352 magnetization 

 Broyden mixing:
  rms(total) = 0.23383E+01    rms(broyden)= 0.23378E+01
  rms(prec ) = 0.25968E+01
  weight for this iteration     100.00

 Free energy of the ion-electron system (eV)
  ---------------------------------------------------
  alpha Z        PSCENC =        69.95909506
  Ewald energy   TEWEN  =     -2741.94693423
  -Hartree energ DENC   =      -621.32517720
  -exchange      EXHF   =         0.00000000
  -V(xc)+E(xc)   XCENC  =       182.20289015
  PAW double counting   =      2494.22442938    -2541.12215007
  entropy T*S    EENTRO =         0.00000000
  eigenvalues    EBANDS =      -690.52181443
  atomic energy  EATOM  =      3769.08782378
  Solvation  Ediel_sol  =         0.00000000
  ---------------------------------------------------
  free energy    TOTEN  =       -79.44183756 eV

  energy without entropy =      -79.44183756  energy(sigma->0) =      -79.44183756


--------------------------------------------------------------------------------------------------------




--------------------------------------- Iteration      1(   6)  ---------------------------------------


    POTLOK:  cpu time    0.0048: real time    0.0048
    SETDIJ:  cpu time    0.0014: real time    0.0014
    EDDIAG:  cpu time    0.0505: real time    0.0517
  RMM-DIIS:  cpu time    0.0844: real time    0.0844
    ORTHCH:  cpu time    0.0069: real time    0.0069
 BZINTS: Fermi energy:  2.794838; 76.000000 electrons
         Band energy:-671.627924;  BLOECHL correction:  0.000000
       DOS:  cpu time    0.0009: real time    0.0009
    CHARGE:  cpu time    0.0162: real time    0.0162
    MIXING:  cpu time    0.0005: real time    0.0005
    --------------------------------------------
      LOOP:  cpu time    0.1656: real time    0.1668

 eigenvalue-minimisations  :   896
 total energy-change (2. order) : 0.2217482E+01  (-0.5734880E+00)
 number of electron      76.0000005 magnetization 
 augmentation part       -1.7847831 magnetization 

 Broyden mixing:
  rms(total) = 0.15099E+01    rms(broyden)= 0.15099E+01
  rms(prec ) = 0.15915E+01
  weight for this iteration     100.00

 eigenvalues of (default mixing * dielectric matrix)
  average eigenvalue GAMMA=   2.4519
  2.4519

 Free energy of the ion-electron system (eV)
  ---------------------------------------------------
  alpha Z        PSCENC =        69.95909506
  Ewald energy   TEWEN  =     -2741.94693423
  -Hartree energ DENC   =      -638.05706512
  -exchange      EXHF   =         0.00000000
  -V(xc)+E(xc)   XCENC  =       183.88852914
  PAW double counting   =      4003.74581510    -4052.27369575
  entropy T*S    EENTRO =         0.00000000
  eigenvalues    EBANDS =      -671.62792390
  atomic energy  EATOM  =      3769.08782378
  Solvation  Ediel_sol  =         0.00000000
  ---------------------------------------------------
  free energy    TOTEN  =       -77.22435592 eV

  energy without entropy =      -77.22435592  energy(sigma->0) =      -77.22435592


--------------------------------------------------------------------------------------------------------




--------------------------------------- Iteration      1(   7)  ---------------------------------------


    POTLOK:  cpu time    0.0044: real time    0.0044
    SETDIJ:  cpu time    0.0014: real time    0.0014
    EDDIAG:  cpu time    0.0504: real time    0.0504
  RMM-DIIS:  cpu time    0.0895: real time    0.0895
    ORTHCH:  cpu time    0.0069: real time    0.0069
 BZINTS: Fermi energy:  3.066503; 76.000000 electrons
         Band energy:-653.747265;  BLOECHL correction:  0.000000
       DOS:  cpu time    0.0008: real time    0.0008
    CHARGE:  cpu time    0.0161: real time    0.0161
    MIXING:  cpu time    0.0005: real time    0.0005
    --------------------------------------------
      LOOP:  cpu time    0.1700: real time    0.1700

 eigenvalue-minimisations  :   945
 total energy-change (2. order) : 0.4688529E+00  (-0.3369154E+00)
 number of electron      76.0000005 magnetization 
 augmentation part       -1.7357756 magnetization 

 Broyden mixing:
  rms(total) = 0.36607E+00    rms(broyden)= 0.36607E+00
  rms(prec ) = 0.39689E+00
  weight for this iteration     100.00

 eigenvalues of (default mixing * dielectric matrix)
  average eigenvalue GAMMA=   1.9359
  1.5011  2.3706

 Free energy of the ion-electron system (eV)
  ---------------------------------------------------
  alpha Z        PSCENC =        69.95909506
  Ewald energy   TEWEN  =     -2741.94693423
  -Hartree energ DENC   =      -655.72125530
  -exchange      EXHF   =         0.00000000
  -V(xc)+E(xc)   XCENC  =       185.67484891
  PAW double counting   =      6872.06352707    -6922.12534375
  entropy T*S    EENTRO =         0.00000000
  eigenvalues    EBANDS =      -653.74726459
  atomic energy  EATOM  =      3769.08782378
  Solvation  Ediel_sol  =         0.00000000
  ---------------------------------------------------
  free energy    TOTEN  =       -76.75550304 eV

  energy without entropy =      -76.75550304  energy(sigma->0) =      -76.75550304


--------------------------------------------------------------------------------------------------------




--------------------------------------- Iteration      1(   8)  ---------------------------------------


    POTLOK:  cpu time    0.0041: real time    0.0041
    SETDIJ:  cpu time    0.0013: real time    0.0013
    EDDIAG:  cpu time    0.0494: real time    0.0494
  RMM-DIIS:  cpu time    0.1055: real time    0.1055
    ORTHCH:  cpu time    0.0069: real time    0.0069
 BZINTS: Fermi energy:  3.068977; 76.000000 electrons
         Band energy:-654.624665;  BLOECHL correction:  0.000000
       DOS:  cpu time    0.0008: real time    0.0008
    CHARGE:  cpu time    0.0163: real time    0.0163
    MIXING:  cpu time    0.0006: real time    0.0006
    --------------------------------------------
      LOOP:  cpu time    0.1849: real time    0.1849

 eigenvalue-minimisations  :  1105
 total energy-change (2. order) : 0.8764904E-01  (-0.2116386E-01)
 number of electron      76.0000005 magnetization 
 augmentation part       -1.7656664 magnetization 

 Broyden mixing:
  rms(total) = 0.65943E-01    rms(broyden)= 0.65918E-01
  rms(prec ) = 0.84004E-01
  weight for this iteration     100.00

 eigenvalues of (default mixing * dielectric matrix)
  average eigenvalue GAMMA=   1.7116
  1.0295  2.0526  2.0526

 Free energy of the ion-electron system (eV)
  ---------------------------------------------------
  alpha Z        PSCENC =        69.95909506
  Ewald energy   TEWEN  =     -2741.94693423
  -Hartree energ DENC   =      -654.76855859
  -exchange      EXHF   =         0.00000000
  -V(xc)+E(xc)   XCENC  =       185.67076166
  PAW double counting   =      7486.66542481    -7536.71080166
  entropy T*S    EENTRO =         0.00000000
  eigenvalues    EBANDS =      -654.62466484
  atomic energy  EATOM  =      3769.08782378
  Solvation  Ediel_sol  =         0.00000000
  ---------------------------------------------------
  free energy    TOTEN  =       -76.66785400 eV

  energy without entropy =      -76.66785400  energy(sigma->0) =      -76.66785400


--------------------------------------------------------------------------------------------------------




--------------------------------------- Iteration      1(   9)  ---------------------------------------


    POTLOK:  cpu time    0.0042: real time    0.0042
    SETDIJ:  cpu time    0.0014: real time    0.0014
    EDDIAG:  cpu time    0.0500: real time    0.0500
  RMM-DIIS:  cpu time    0.0992: real time    0.0992
    ORTHCH:  cpu time    0.0069: real time    0.0069
 BZINTS: Fermi energy:  3.065976; 76.000000 electrons
         Band energy:-655.901611;  BLOECHL correction:  0.000000
       DOS:  cpu time    0.0008: real time    0.0008
    CHARGE:  cpu time    0.0162: real time    0.0162
    MIXING:  cpu time    0.0006: real time    0.0006
    --------------------------------------------
      LOOP:  cpu time    0.1793: real time    0.1793

 eigenvalue-minimisations  :  1056
 total energy-change (2. order) : 0.6587680E-02  (-0.4515124E-02)
 number of electron      76.0000005 magnetization 
 augmentation part       -1.7808958 magnetization 

 Broyden mixing:
  rms(total) = 0.22012E-01    rms(broyden)= 0.21996E-01
  rms(prec ) = 0.25505E-01
  weight for this iteration     100.00

 eigenvalues of (default mixing * dielectric matrix)
  average eigenvalue GAMMA=   1.7613
  2.3084  1.1805  1.7782  1.7782

 Free energy of the ion-electron system (eV)
  ---------------------------------------------------
  alpha Z        PSCENC =        69.95909506
  Ewald energy   TEWEN  =     -2741.94693423
  -Hartree energ DENC   =      -653.46523541
  -exchange      EXHF   =         0.00000000
  -V(xc)+E(xc)   XCENC  =       185.61155629
  PAW double counting   =      7430.38477095    -7480.39073161
  entropy T*S    EENTRO =         0.00000000
  eigenvalues    EBANDS =      -655.90161116
  atomic energy  EATOM  =      3769.08782378
  Solvation  Ediel_sol  =         0.00000000
  ---------------------------------------------------
  free energy    TOTEN  =       -76.66126632 eV

  energy without entropy =      -76.66126632  energy(sigma->0) =      -76.66126632


--------------------------------------------------------------------------------------------------------




--------------------------------------- Iteration      1(  10)  ---------------------------------------


    POTLOK:  cpu time    0.0040: real time    0.0040
    SETDIJ:  cpu time    0.0013: real time    0.0013
    EDDIAG:  cpu time    0.0496: real time    0.0496
  RMM-DIIS:  cpu time    0.1213: real time    0.1214
    ORTHCH:  cpu time    0.0072: real time    0.0072
 BZINTS: Fermi energy:  3.063677; 76.000000 electrons
         Band energy:-655.278146;  BLOECHL correction:  0.000000
       DOS:  cpu time    0.0008: real time    0.0008
    CHARGE:  cpu time    0.0165: real time    0.0165
    MIXING:  cpu time    0.0006: real time    0.0006
    --------------------------------------------
      LOOP:  cpu time    0.2013: real time    0.2013

 eigenvalue-minimisations  :  1247
 total energy-change (2. order) : 0.1159976E-03  (-0.8464801E-03)
 number of electron      76.0000005 magnetization 
 augmentation part       -1.7822329 magnetization 

 Broyden mixing:
  rms(total) = 0.16481E-01    rms(broyden)= 0.16470E-01
  rms(prec ) = 0.17859E-01
  weight for this iteration     100.00

 eigenvalues of (default mixing * dielectric matrix)
  average eigenvalue GAMMA=   1.7241
  2.2517  2.2517  2.0684  1.2672  0.7812

 Free energy of the ion-electron system (eV)
  ---------------------------------------------------
  alpha Z        PSCENC =        69.95909506
  Ewald energy   TEWEN  =     -2741.94693423
  -Hartree energ DENC   =      -654.10811361
  -exchange      EXHF   =         0.00000000
  -V(xc)+E(xc)   XCENC  =       185.66184457
  PAW double counting   =      7417.78958531    -7467.82630474
  entropy T*S    EENTRO =         0.00000000
  eigenvalues    EBANDS =      -655.27814647
  atomic energy  EATOM  =      3769.08782378
  Solvation  Ediel_sol  =         0.00000000
  ---------------------------------------------------
  free energy    TOTEN  =       -76.66115032 eV

  energy without entropy =      -76.66115032  energy(sigma->0) =      -76.66115032


--------------------------------------------------------------------------------------------------------




--------------------------------------- Iteration      1(  11)  ---------------------------------------


    POTLOK:  cpu time    0.0042: real time    0.0042
    SETDIJ:  cpu time    0.0014: real time    0.0014
    EDDIAG:  cpu time    0.0533: real time    0.0533
  RMM-DIIS:  cpu time    0.1152: real time    0.1152
    ORTHCH:  cpu time    0.0069: real time    0.0069
 BZINTS: Fermi energy:  3.061819; 76.000000 electrons
         Band energy:-655.180417;  BLOECHL correction:  0.000000
       DOS:  cpu time    0.0008: real time    0.0008
    CHARGE:  cpu time    0.0159: real time    0.0159
    MIXING:  cpu time    0.0007: real time    0.0007
    --------------------------------------------
      LOOP:  cpu time    0.1983: real time    0.1983

 eigenvalue-minimisations  :  1231
 total energy-change (2. order) :-0.2775102E-03  (-0.3460670E-03)
 number of electron      76.0000005 magnetization 
 augmentation part       -1.7846550 magnetization 

 Broyden mixing:
  rms(total) = 0.71590E-02    rms(broyden)= 0.71467E-02
  rms(prec ) = 0.82467E-02
  weight for this iteration     100.00

 eigenvalues of (default mixing * dielectric matrix)
  average eigenvalue GAMMA=   1.6598
  2.4054  2.4054  1.6162  1.4323  1.0497  1.0497

 Free energy of the ion-electron system (eV)
  ---------------------------------------------------
  alpha Z        PSCENC =        69.95909506
  Ewald energy   TEWEN  =     -2741.94693423
  -Hartree energ DENC   =      -654.22121599
  -exchange      EXHF   =         0.00000000
  -V(xc)+E(xc)   XCENC  =       185.67156950
  PAW double counting   =      7386.32488234    -7436.35623158
  entropy T*S    EENTRO =         0.00000000
  eigenvalues    EBANDS =      -655.18041671
  atomic energy  EATOM  =      3769.08782378
  Solvation  Ediel_sol  =         0.00000000
  ---------------------------------------------------
  free energy    TOTEN  =       -76.66142783 eV

  energy without entropy =      -76.66142783  energy(sigma->0) =      -76.66142783


--------------------------------------------------------------------------------------------------------




--------------------------------------- Iteration      1(  12)  ---------------------------------------


    POTLOK:  cpu time    0.0041: real time    0.0040
    SETDIJ:  cpu time    0.0013: real time    0.0013
    EDDIAG:  cpu time    0.0499: real time    0.0499
  RMM-DIIS:  cpu time    0.1108: real time    0.1108
    ORTHCH:  cpu time    0.0070: real time    0.0070
 BZINTS: Fermi energy:  3.058624; 76.000000 electrons
         Band energy:-655.239701;  BLOECHL correction:  0.000000
       DOS:  cpu time    0.0008: real time    0.0008
    CHARGE:  cpu time    0.0162: real time    0.0162
    MIXING:  cpu time    0.0006: real time    0.0006
    --------------------------------------------
      LOOP:  cpu time    0.1906: real time    0.1906

 eigenvalue-minimisations  :  1198
 total energy-change (2. order) :-0.1121376E-03  (-0.1701796E-03)
 number of electron      76.0000005 magnetization 
 augmentation part       -1.7869584 magnetization 

 Broyden mixing:
  rms(total) = 0.29899E-02    rms(broyden)= 0.29763E-02
  rms(prec ) = 0.32961E-02
  weight for this iteration     100.00

 eigenvalues of (default mixing * dielectric matrix)
  average eigenvalue GAMMA=   1.6082
  2.2746  2.2444  2.2444  1.3352  1.3352  1.0639  0.7600

 Free energy of the ion-electron system (eV)
  ---------------------------------------------------
  alpha Z        PSCENC =        69.95909506
  Ewald energy   TEWEN  =     -2741.94693423
  -Hartree energ DENC   =      -654.17217240
  -exchange      EXHF   =         0.00000000
  -V(xc)+E(xc)   XCENC  =       185.67183637
  PAW double counting   =      7396.44705876    -7446.46854613
  entropy T*S    EENTRO =         0.00000000
  eigenvalues    EBANDS =      -655.23970117
  atomic energy  EATOM  =      3769.08782378
  Solvation  Ediel_sol  =         0.00000000
  ---------------------------------------------------
  free energy    TOTEN  =       -76.66153997 eV

  energy without entropy =      -76.66153997  energy(sigma->0) =      -76.66153997


--------------------------------------------------------------------------------------------------------




--------------------------------------- Iteration      1(  13)  ---------------------------------------


    POTLOK:  cpu time    0.0038: real time    0.0042
    SETDIJ:  cpu time    0.0014: real time    0.0014
    EDDIAG:  cpu time    0.0496: real time    0.0496
  RMM-DIIS:  cpu time    0.0775: real time    0.0776
    ORTHCH:  cpu time    0.0069: real time    0.0069
 BZINTS: Fermi energy:  3.055518; 76.000000 electrons
         Band energy:-655.204345;  BLOECHL correction:  0.000000
       DOS:  cpu time    0.0008: real time    0.0008
    CHARGE:  cpu time    0.0162: real time    0.0162
    MIXING:  cpu time    0.0007: real time    0.0007
    --------------------------------------------
      LOOP:  cpu time    0.1570: real time    0.1573

 eigenvalue-minimisations  :   859
 total energy-change (2. order) :-0.6123551E-04  (-0.7168431E-04)
 number of electron      76.0000005 magnetization 
 augmentation part       -1.7876256 magnetization 

 Broyden mixing:
  rms(total) = 0.14669E-02    rms(broyden)= 0.14567E-02
  rms(prec ) = 0.17086E-02
  weight for this iteration     100.00

 eigenvalues of (default mixing * dielectric matrix)
  average eigenvalue GAMMA=   1.7772
  3.1230  2.3695  2.3695  1.8612  1.5154  1.0846  0.9473  0.9473

 Free energy of the ion-electron system (eV)
  ---------------------------------------------------
  alpha Z        PSCENC =        69.95909506
  Ewald energy   TEWEN  =     -2741.94693423
  -Hartree energ DENC   =      -654.21996313
  -exchange      EXHF   =         0.00000000
  -V(xc)+E(xc)   XCENC  =       185.67544193
  PAW double counting   =      7394.54254959    -7444.55526948
  entropy T*S    EENTRO =         0.00000000
  eigenvalues    EBANDS =      -655.20434473
  atomic energy  EATOM  =      3769.08782378
  Solvation  Ediel_sol  =         0.00000000
  ---------------------------------------------------
  free energy    TOTEN  =       -76.66160121 eV

  energy without entropy =      -76.66160121  energy(sigma->0) =      -76.66160121


--------------------------------------------------------------------------------------------------------




--------------------------------------- Iteration      1(  14)  ---------------------------------------


    POTLOK:  cpu time    0.0037: real time    0.0041
    SETDIJ:  cpu time    0.0014: real time    0.0014
    EDDIAG:  cpu time    0.0490: real time    0.0490
  RMM-DIIS:  cpu time    0.0918: real time    0.0918
    ORTHCH:  cpu time    0.0069: real time    0.0069
 BZINTS: Fermi energy:  3.052960; 76.000000 electrons
         Band energy:-655.204577;  BLOECHL correction:  0.000000
       DOS:  cpu time    0.0008: real time    0.0008
    CHARGE:  cpu time    0.0159: real time    0.0159
    MIXING:  cpu time    0.0007: real time    0.0007
    --------------------------------------------
      LOOP:  cpu time    0.1702: real time    0.1706

 eigenvalue-minimisations  :   990
 total energy-change (2. order) :-0.3024120E-04  (-0.3643978E-04)
 number of electron      76.0000005 magnetization 
 augmentation part       -1.7882051 magnetization 

 Broyden mixing:
  rms(total) = 0.37292E-03    rms(broyden)= 0.36044E-03
  rms(prec ) = 0.62559E-03
  weight for this iteration     100.00

 eigenvalues of (default mixing * dielectric matrix)
  average eigenvalue GAMMA=   1.7036
  3.0922  2.4733  2.1283  2.1283  1.3967  1.3967  1.0137  0.8517  0.8517

 Free energy of the ion-electron system (eV)
  ---------------------------------------------------
  alpha Z        PSCENC =        69.95909506
  Ewald energy   TEWEN  =     -2741.94693423
  -Hartree energ DENC   =      -654.23512601
  -exchange      EXHF   =         0.00000000
  -V(xc)+E(xc)   XCENC  =       185.67800598
  PAW double counting   =      7392.60874125    -7442.60866030
  entropy T*S    EENTRO =         0.00000000
  eigenvalues    EBANDS =      -655.20457699
  atomic energy  EATOM  =      3769.08782378
  Solvation  Ediel_sol  =         0.00000000
  ---------------------------------------------------
  free energy    TOTEN  =       -76.66163145 eV

  energy without entropy =      -76.66163145  energy(sigma->0) =      -76.66163145


--------------------------------------------------------------------------------------------------------




--------------------------------------- Iteration      1(  15)  ---------------------------------------


    POTLOK:  cpu time    0.0037: real time    0.0040
    SETDIJ:  cpu time    0.0014: real time    0.0014
    EDDIAG:  cpu time    0.0501: real time    0.0501
  RMM-DIIS:  cpu time    0.0707: real time    0.0707
    ORTHCH:  cpu time    0.0069: real time    0.0069
 BZINTS: Fermi energy:  3.050040; 76.000000 electrons
         Band energy:-655.202340;  BLOECHL correction:  0.000000
       DOS:  cpu time    0.0008: real time    0.0008
    --------------------------------------------
      LOOP:  cpu time    0.1336: real time    0.1339

 eigenvalue-minimisations  :   742
 total energy-change (2. order) :-0.1199793E-04  (-0.1535795E-04)
 number of electron      76.0000005 magnetization 
 augmentation part       -1.7882051 magnetization 

 Free energy of the ion-electron system (eV)
  ---------------------------------------------------
  alpha Z        PSCENC =        69.95909506
  Ewald energy   TEWEN  =     -2741.94693423
  -Hartree energ DENC   =      -654.23648822
  -exchange      EXHF   =         0.00000000
  -V(xc)+E(xc)   XCENC  =       185.67774476
  PAW double counting   =      7392.35991508    -7442.36045948
  entropy T*S    EENTRO =         0.00000000
  eigenvalues    EBANDS =      -655.20234021
  atomic energy  EATOM  =      3769.08782378
  Solvation  Ediel_sol  =         0.00000000
  ---------------------------------------------------
  free energy    TOTEN  =       -76.66164344 eV

  energy without entropy =      -76.66164344  energy(sigma->0) =      -76.66164344


--------------------------------------------------------------------------------------------------------




 average (electrostatic) potential at core
  the test charge radii are     0.9587  0.9698  0.7079
  (the norm of the test charge is              1.0000)
       1 -88.0930       2 -88.0930       3 -88.0841       4 -88.0841       5 -88.0841
       6 -88.0841       7 -88.0573       8 -88.0573       9 -88.0230      10 -88.0230
      11 -64.0844      12 -64.0844      13 -63.3913      14 -63.3913      15 -63.3913
      16 -63.3913
 
 
 
 E-fermi :   3.0500     XC(G=0):  -9.2087     alpha+bet :-10.7074


 k-point     1 :       0.0000    0.0000    0.0000
  band No.  band energies     occupation 
      1     -41.2350      2.00000
      2     -41.2349      2.00000
      3     -40.5779      2.00000
      4     -40.5777      2.00000
      5     -40.5742      2.00000
      6     -40.5739      2.00000
      7     -12.4606      2.00000
      8     -12.2608      2.00000
      9      -9.4656      2.00000
     10      -9.3782      2.00000
     11      -9.3188      2.00000
     12      -9.1202      2.00000
     13      -9.1036      2.00000
     14      -8.9980      2.00000
     15      -5.4367      2.00000
     16      -4.7263      2.00000
     17      -2.6484      2.00000
     18      -1.9638      2.00000
     19      -1.8810      2.00000
     20      -1.8081      2.00000
     21      -1.7667      2.00000
     22      -1.5868      2.00000
     23      -0.6255      2.00000
     24      -0.3530      2.00000
     25       0.1145      2.00000
     26       0.1810      2.00000
     27       0.2792      2.00000
     28       0.5060      2.00000
     29       1.1469      2.00000
     30       1.5742      2.00000
     31       1.7378      2.00000
     32       1.8853      2.00000
     33       1.9410      2.00000
     34       2.1527      2.00000
     35       2.2754      2.00000
     36       2.3328      2.00000
     37       2.3895      2.00000
     38       2.9521      2.00000
     39       4.8055      0.00000
     40       5.6239      0.00000
     41       5.7124      0.00000
     42       5.8319      0.00000
     43       6.5207      0.00000
     44       6.7915      0.00000
     45       7.6609      0.00000
     46       7.8098      0.00000
     47       8.1078      0.00000
     48       8.7502      0.00000

 k-point     2 :       0.3333    0.0000    0.0000
  band No.  band energies     occupation 
      1     -41.2350      2.00000
      2     -41.2349      2.00000
      3     -40.5777      2.00000
      4     -40.5776      2.00000
      5     -40.5743      2.00000
      6     -40.5742      2.00000
      7     -12.4088      2.00000
      8     -12.3084      2.00000
      9      -9.4213      2.00000
     10      -9.3355      2.00000
     11      -9.3340      2.00000
     12      -9.1846      2.00000
     13      -9.1037      2.00000
     14      -9.0754      2.00000
     15      -5.1807      2.00000
     16      -4.8290      2.00000
     17      -2.4379      2.00000
     18      -2.0232      2.00000
     19      -1.9332      2.00000
     20      -1.8714      2.00000
     21      -1.8457      2.00000
     22      -1.6695      2.00000
     23      -0.4603      2.00000
     24      -0.1720      2.00000
     25      -0.1017      2.00000
     26       0.1693      2.00000
     27       0.5820      2.00000
     28       0.7678      2.00000
     29       1.3003      2.00000
     30       1.3552      2.00000
     31       1.4438      2.00000
     32       1.5957      2.00000
     33       1.7364      2.00000
     34       1.8609      2.00000
     35       2.1039      2.00000
     36       2.1746      2.00000
     37       2.4379      2.00000
     38       2.6752      2.00000
     39       5.2787      0.00000
     40       5.6980      0.00000
     41       6.1544      0.00000
     42       6.4939      0.00000
     43       6.5828      0.00000
     44       7.2280      0.00000
     45       7.3174      0.00000
     46       7.5558      0.00000
     47       8.1669      0.00000
     48       8.9606      0.00000

 k-point     3 :       0.0000    0.3333    0.0000
  band No.  band energies     occupation 
      1     -41.2350      2.00000
      2     -41.2349      2.00000
      3     -40.5779      2.00000
      4     -40.5778      2.00000
      5     -40.5741      2.00000
      6     -40.5741      2.00000
      7     -12.3967      2.00000
      8     -12.2920      2.00000
      9      -9.4433      2.00000
     10      -9.3683      2.00000
     11      -9.3448      2.00000
     12      -9.2234      2.00000
     13      -9.1093      2.00000
     14      -8.9975      2.00000
     15      -5.2815      2.00000
     16      -4.8913      2.00000
     17      -2.4661      2.00000
     18      -2.1836      2.00000
     19      -2.1521      2.00000
     20      -1.9548      2.00000
     21      -1.7203      2.00000
     22      -1.6777      2.00000
     23      -0.4048      2.00000
     24      -0.1478      2.00000
     25       0.2552      2.00000
     26       0.3898      2.00000
     27       0.6022      2.00000
     28       0.7459      2.00000
     29       1.0278      2.00000
     30       1.0871      2.00000
     31       1.8675      2.00000
     32       1.9092      2.00000
     33       2.0938      2.00000
     34       2.2076      2.00000
     35       2.2317      2.00000
     36       2.2608      2.00000
     37       2.3561      2.00000
     38       2.8455      2.00000
     39       5.1262      0.00000
     40       5.5665      0.00000
     41       6.1133      0.00000
     42       6.4398      0.00000
     43       6.4728      0.00000
     44       6.8561      0.00000
     45       7.5522      0.00000
     46       7.6273      0.00000
     47       8.1729      0.00000
     48       8.3549      0.00000

 k-point     4 :       0.3333    0.3333    0.0000
  band No.  band energies     occupation 
      1     -41.2350      2.00000
      2     -41.2350      2.00000
      3     -40.5777      2.00000
      4     -40.5776      2.00000
      5     -40.5743      2.00000
      6     -40.5742      2.00000
      7     -12.3658      2.00000
      8     -12.3131      2.00000
      9      -9.4167      2.00000
     10      -9.3994      2.00000
     11      -9.3063      2.00000
     12      -9.2748      2.00000
     13      -9.1134      2.00000
     14      -9.0474      2.00000
     15      -5.1026      2.00000
     16      -4.9037      2.00000
     17      -2.3817      2.00000
     18      -2.1971      2.00000
     19      -2.1003      2.00000
     20      -1.9755      2.00000
     21      -1.7949      2.00000
     22      -1.6602      2.00000
     23      -0.2531      2.00000
     24      -0.0449      2.00000
     25       0.1255      2.00000
     26       0.4427      2.00000
     27       0.6498      2.00000
     28       0.7015      2.00000
     29       0.8757      2.00000
     30       1.2814      2.00000
     31       1.5836      2.00000
     32       1.6322      2.00000
     33       1.8253      2.00000
     34       1.8992      2.00000
     35       2.1065      2.00000
     36       2.2621      2.00000
     37       2.4954      2.00000
     38       2.6860      2.00000
     39       5.3815      0.00000
     40       5.6658      0.00000
     41       6.3516      0.00000
     42       6.5348      0.00000
     43       6.9090      0.00000
     44       7.1718      0.00000
     45       7.4024      0.00000
     46       7.5318      0.00000
     47       8.6553      0.00000
     48       8.8726      0.00000

 k-point     5 :       0.0000    0.0000    0.3333
  band No.  band energies     occupation 
      1     -41.2350      2.00000
      2     -41.2349      2.00000
      3     -40.5779      2.00000
      4     -40.5778      2.00000
      5     -40.5741      2.00000
      6     -40.5740      2.00000
      7     -12.4019      2.00000
      8     -12.3004      2.00000
      9      -9.5118      2.00000
     10      -9.4047      2.00000
     11      -9.2896      2.00000
     12      -9.1196      2.00000
     13      -9.1000      2.00000
     14      -9.0866      2.00000
     15      -5.1081      2.00000
     16      -4.7533      2.00000
     17      -2.4960      2.00000
     18      -2.1658      2.00000
     19      -1.8906      2.00000
     20      -1.8459      2.00000
     21      -1.7954      2.00000
     22      -1.6261      2.00000
     23      -0.3349      2.00000
     24      -0.1580      2.00000
     25       0.0629      2.00000
     26       0.1839      2.00000
     27       0.3649      2.00000
     28       0.7091      2.00000
     29       1.2233      2.00000
     30       1.3742      2.00000
     31       1.4768      2.00000
     32       1.6217      2.00000
     33       1.8031      2.00000
     34       1.8374      2.00000
     35       1.8950      2.00000
     36       2.1735      2.00000
     37       2.3007      2.00000
     38       2.4358      2.00000
     39       5.3788      0.00000
     40       5.9067      0.00000
     41       6.3138      0.00000
     42       6.5135      0.00000
     43       6.6674      0.00000
     44       7.1277      0.00000
     45       7.3449      0.00000
     46       7.5950      0.00000
     47       8.1086      0.00000
     48       8.9522      0.00000

 k-point     6 :       0.3333    0.0000    0.3333
  band No.  band energies     occupation 
      1     -41.2350      2.00000
      2     -41.2350      2.00000
      3     -40.5776      2.00000
      4     -40.5776      2.00000
      5     -40.5743      2.00000
      6     -40.5742      2.00000
      7     -12.3708      2.00000
      8     -12.3196      2.00000
      9      -9.5494      2.00000
     10      -9.4851      2.00000
     11      -9.2349      2.00000
     12      -9.1842      2.00000
     13      -9.0627      2.00000
     14      -9.0471      2.00000
     15      -4.9477      2.00000
     16      -4.7703      2.00000
     17      -2.3497      2.00000
     18      -2.2753      2.00000
     19      -2.1426      2.00000
     20      -1.9180      2.00000
     21      -1.5936      2.00000
     22      -1.5790      2.00000
     23      -0.1285      2.00000
     24      -0.0131      2.00000
     25       0.1909      2.00000
     26       0.2119      2.00000
     27       0.3929      2.00000
     28       0.8808      2.00000
     29       1.0592      2.00000
     30       1.2682      2.00000
     31       1.3678      2.00000
     32       1.4721      2.00000
     33       1.6134      2.00000
     34       1.6795      2.00000
     35       1.8193      2.00000
     36       1.8257      2.00000
     37       2.0546      2.00000
     38       2.2062      2.00000
     39       5.8116      0.00000
     40       6.2068      0.00000
     41       6.5861      0.00000
     42       6.7760      0.00000
     43       6.8839      0.00000
     44       7.3593      0.00000
     45       7.4847      0.00000
     46       7.7911      0.00000
     47       8.2614      0.00000
     48       8.6378      0.00000

 k-point     7 :       0.0000    0.3333    0.3333
  band No.  band energies     occupation 
      1     -41.2350      2.00000
      2     -41.2349      2.00000
      3     -40.5778      2.00000
      4     -40.5778      2.00000
      5     -40.5741      2.00000
      6     -40.5740      2.00000
      7     -12.3585      2.00000
      8     -12.3052      2.00000
      9      -9.5046      2.00000
     10      -9.4493      2.00000
     11      -9.2816      2.00000
     12      -9.1884      2.00000
     13      -9.1005      2.00000
     14      -9.0966      2.00000
     15      -5.0149      2.00000
     16      -4.8253      2.00000
     17      -2.4611      2.00000
     18      -2.2633      2.00000
     19      -2.0837      2.00000
     20      -1.9312      2.00000
     21      -1.8661      2.00000
     22      -1.5746      2.00000
     23      -0.1095      2.00000
     24      -0.0214      2.00000
     25       0.3265      2.00000
     26       0.3529      2.00000
     27       0.6483      2.00000
     28       0.7439      2.00000
     29       0.7842      2.00000
     30       1.2544      2.00000
     31       1.3805      2.00000
     32       1.5372      2.00000
     33       1.8862      2.00000
     34       1.9745      2.00000
     35       2.0984      2.00000
     36       2.1659      2.00000
     37       2.2839      2.00000
     38       2.4543      2.00000
     39       5.5027      0.00000
     40       5.8232      0.00000
     41       6.4535      0.00000
     42       6.7188      0.00000
     43       6.8967      0.00000
     44       7.0970      0.00000
     45       7.4228      0.00000
     46       7.4802      0.00000
     47       8.6408      0.00000
     48       8.8862      0.00000

 k-point     8 :       0.3333    0.3333    0.3333
  band No.  band energies     occupation 
      1     -41.2350      2.00000
      2     -41.2349      2.00000
      3     -40.5776      2.00000
      4     -40.5776      2.00000
      5     -40.5743      2.00000
      6     -40.5742      2.00000
      7     -12.3395      2.00000
      8     -12.3126      2.00000
      9      -9.4925      2.00000
     10      -9.4593      2.00000
     11      -9.2943      2.00000
     12      -9.2349      2.00000
     13      -9.1206      2.00000
     14      -9.0894      2.00000
     15      -4.8690      2.00000
     16      -4.7723      2.00000
     17      -2.3380      2.00000
     18      -2.2734      2.00000
     19      -2.1887      2.00000
     20      -2.0857      2.00000
     21      -1.6397      2.00000
     22      -1.5937      2.00000
     23      -0.1549      2.00000
     24      -0.0536      2.00000
     25       0.2909      2.00000
     26       0.5315      2.00000
     27       0.6223      2.00000
     28       0.7703      2.00000
     29       0.9048      2.00000
     30       1.1089      2.00000
     31       1.3881      2.00000
     32       1.4864      2.00000
     33       1.6944      2.00000
     34       1.8386      2.00000
     35       1.9338      2.00000
     36       2.0084      2.00000
     37       2.1073      2.00000
     38       2.1907      2.00000
     39       5.9037      0.00000
     40       6.1772      0.00000
     41       6.7728      0.00000
     42       6.9113      0.00000
     43       7.0629      0.00000
     44       7.2080      0.00000
     45       7.3690      0.00000
     46       7.4527      0.00000
     47       8.7100      0.00000
     48       8.9590      0.00000


--------------------------------------------------------------------------------------------------------


 soft charge-density along one line, spin component           1
         0         1         2         3         4         5         6         7         8         9
 total charge-density along one line
 
 pseudopotential strength for first ion, spin component:           1
 30.000  37.430  -0.001  -0.004  -0.000  -0.002  -0.007  -0.000
 37.430  46.706  -0.001  -0.005  -0.000  -0.002  -0.008  -0.000
 -0.001  -0.001   6.575   0.001   0.000  10.181   0.002   0.000
 -0.004  -0.005   0.001   6.576   0.000   0.002  10.183   0.000
 -0.000  -0.000   0.000   0.000   6.574   0.000   0.000  10.180
 -0.002  -0.002  10.181   0.002   0.000  15.784   0.003   0.000
 -0.007  -0.008   0.002  10.183   0.000   0.003  15.787   0.000
 -0.000  -0.000   0.000   0.000  10.180   0.000   0.000  15.783
 total augmentation occupancy for first ion, spin component:           1
 10.977  -6.306  -0.062  -0.240   0.000   0.026   0.104   0.000
 -6.306   4.090   0.062   0.211   0.000  -0.024  -0.085   0.000
 -0.062   0.062   4.219   0.295   0.000  -1.389  -0.134   0.000
 -0.240   0.211   0.295   4.634   0.000  -0.134  -1.585   0.000
  0.000   0.000   0.000   0.000   4.193   0.000   0.000  -1.382
  0.026  -0.024  -1.389  -0.134   0.000   0.496   0.060   0.000
  0.104  -0.085  -0.134  -1.585   0.000   0.060   0.584   0.000
  0.000   0.000   0.000   0.000  -1.382   0.000   0.000   0.494


------------------------ aborting loop because EDIFF is reached ----------------------------------------


    CHARGE:  cpu time    0.0159: real time    0.0159
    FORLOC:  cpu time    0.0008: real time    0.0008
    FORNL :  cpu time    0.0328: real time    0.0329
    STRESS:  cpu time    0.0936: real time    0.0945
    FORCOR:  cpu time    0.0030: real time    0.0030
    FORHAR:  cpu time    0.0025: real time    0.0025
    MIXING:  cpu time    0.0005: real time    0.0005
    OFIELD:  cpu time    0.0001: real time    0.0002

  FORCE on cell =-STRESS in cart. coord.  units (eV):
  Direction    XX          YY          ZZ          XY          YZ          ZX
  --------------------------------------------------------------------------------------
  Alpha Z    69.95910    69.95910    69.95910
  Ewald    -905.46024  -905.07611  -931.41731     0.00000    -0.00000     0.00000
  Hartree   228.37658   227.91773   197.96014    -0.00000     0.00000    -0.00000
  E(xc)    -277.41524  -277.42668  -277.42700    -0.00000    -0.00000    -0.00000
  Local    -676.12709  -673.46073  -611.56173    -0.00000    -0.00000    -0.00000
  n-local   603.83010   605.03229   605.47511    -0.09649    -0.06871    -0.02295
  augment   -45.16867   -44.91674   -44.50355     0.00000    -0.00000     0.00000
  Kinetic  1004.31597   998.42869   992.22176     0.06532     0.00624    -0.01551
  Fock        0.00000     0.00000     0.00000     0.00000     0.00000     0.00000
  -------------------------------------------------------------------------------------
  Total       2.31050     0.45755     0.70652     0.00000     0.00000     0.00000
  in kB      13.12405     2.59900     4.01314     0.00000     0.00000     0.00000
  external pressure =        6.58 kB  Pullay stress =        0.00 kB


 VOLUME and BASIS-vectors are now :
 -----------------------------------------------------------------------------
  energy-cutoff  :      420.00
  volume of cell :      282.06
      direct lattice vectors                 reciprocal lattice vectors
     7.166537003  0.000000000  0.000000000     0.139537408  0.000000000  0.000000000
     0.000000000  5.682427510  0.000000000     0.000000000  0.175981127  0.000000000
     0.000000000  0.000000000  6.926355228     0.000000000  0.000000000  0.144376078

  length of vectors
     7.166537003  5.682427510  6.926355228     0.139537408  0.175981127  0.144376078


 FORCES acting on ions
    electron-ion (+dipol)            ewald-force                    non-local-force                 convergence-correction
 -----------------------------------------------------------------------------------------------
   0.141E-09 -.967E+01 -.238E+02   0.204E-08 0.100E+02 0.246E+02   0.000E+00 -.542E+00 -.879E+00   -.324E-10 0.282E-03 0.138E-02
   -.267E-08 0.967E+01 -.238E+02   -.614E-09 -.100E+02 0.246E+02   0.000E+00 0.542E+00 -.879E+00   0.352E-10 -.282E-03 0.138E-02
   -.740E+02 0.387E+02 0.206E+01   0.751E+02 -.401E+02 -.323E+01   -.111E+01 0.158E+01 0.926E+00   0.151E-02 -.755E-03 0.170E-03
   0.740E+02 -.387E+02 0.206E+01   -.751E+02 0.401E+02 -.323E+01   0.111E+01 -.158E+01 0.926E+00   -.151E-02 0.755E-03 0.170E-03
   -.740E+02 -.387E+02 0.206E+01   0.751E+02 0.401E+02 -.323E+01   -.111E+01 -.158E+01 0.926E+00   0.151E-02 0.755E-03 0.170E-03
   0.740E+02 0.387E+02 0.206E+01   -.751E+02 -.401E+02 -.323E+01   0.111E+01 0.158E+01 0.926E+00   -.151E-02 -.755E-03 0.170E-03
   -.139E-09 -.654E+02 0.665E+02   0.190E-08 0.654E+02 -.685E+02   0.000E+00 0.354E+00 0.214E+01   -.424E-10 0.109E-02 -.204E-02
   -.684E-08 0.654E+02 0.665E+02   -.951E-09 -.654E+02 -.685E+02   0.000E+00 -.354E+00 0.214E+01   0.427E-10 -.109E-02 -.204E-02
   -.341E-10 -.126E+02 -.883E+02   0.155E-08 0.135E+02 0.898E+02   0.000E+00 -.123E+01 -.123E+01   -.424E-10 -.409E-03 0.182E-02
   -.700E-08 0.126E+02 -.883E+02   -.105E-08 -.135E+02 0.898E+02   0.000E+00 0.123E+01 -.123E+01   0.424E-10 0.409E-03 0.182E-02
   0.734E-10 0.154E+02 0.135E+02   0.965E-09 -.160E+02 -.132E+02   0.000E+00 0.461E+00 -.257E+00   -.210E-10 0.291E-03 0.392E-03
   -.480E-08 -.154E+02 0.135E+02   -.420E-09 0.160E+02 -.132E+02   0.000E+00 -.461E+00 -.257E+00   0.206E-10 -.291E-03 0.392E-03
   -.115E+02 -.227E+01 0.136E+02   0.111E+02 0.253E+01 -.131E+02   0.318E+00 -.499E+00 -.451E+00   0.343E-05 0.505E-04 0.240E-03
   0.115E+02 0.227E+01 0.136E+02   -.111E+02 -.253E+01 -.131E+02   -.318E+00 0.499E+00 -.451E+00   -.343E-05 -.505E-04 0.240E-03
   -.115E+02 0.227E+01 0.136E+02   0.111E+02 -.253E+01 -.131E+02   0.318E+00 0.499E+00 -.451E+00   0.343E-05 -.505E-04 0.240E-03
   0.115E+02 -.227E+01 0.136E+02   -.111E+02 0.253E+01 -.131E+02   -.318E+00 -.499E+00 -.451E+00   -.343E-05 0.505E-04 0.240E-03
 -----------------------------------------------------------------------------------------------
   -.671E-07 0.331E-07 -.146E+01   -.355E-14 -.289E-13 0.284E-13   0.000E+00 -.555E-16 0.145E+01   0.466E-11 -.391E-11 0.474E-02
 
 
 POSITION                                       TOTAL-FORCE (eV/Angst)
 -----------------------------------------------------------------------------------
      0.00000      4.28203      1.90482         0.000000     -0.206216     -0.023116
      3.58327      1.40040      5.36800         0.000000      0.206216     -0.023116
      1.65508      3.07714      1.71148        -0.020207      0.233490     -0.246926
      1.92819      2.60529      5.17465         0.020207     -0.233490     -0.246926
      5.23835      2.60529      5.17465        -0.020207     -0.233490     -0.246926
      5.51146      3.07714      1.71148         0.020207      0.233490     -0.246926
      0.00000      5.34038      0.14759         0.000000      0.395747      0.088311
      3.58327      0.34205      3.61077         0.000000     -0.395747      0.088311
      0.00000      5.35602      3.59418         0.000000     -0.415015      0.202122
      3.58327      0.32641      0.13100         0.000000      0.415015      0.202122
      0.00000      2.13657      6.83217         0.000000     -0.140182      0.057837
      3.58327      3.54586      3.36899         0.000000      0.140182      0.057837
      2.02795      4.43811      6.57875        -0.005358     -0.240234      0.084348
      1.55532      1.24432      3.11557         0.005358      0.240234      0.084348
      5.61122      1.24432      3.11557        -0.005358      0.240234      0.084348
      5.13859      4.43811      6.57875         0.005358     -0.240234      0.084348
 -----------------------------------------------------------------------------------
    total drift:                               -0.000000      0.000000     -0.000699


--------------------------------------------------------------------------------------------------------



  FREE ENERGIE OF THE ION-ELECTRON SYSTEM (eV)
  ---------------------------------------------------
  free  energy   TOTEN  =       -76.66164344 eV

  energy  without entropy=      -76.66164344  energy(sigma->0) =      -76.66164344
 


--------------------------------------------------------------------------------------------------------


    POTLOK:  cpu time    0.0043: real time    0.0043


--------------------------------------------------------------------------------------------------------


     LOOP+:  cpu time    3.0428: real time    3.0671
    4ORBIT:  cpu time    0.0000: real time    0.0000
 BZINTS: Fermi energy:  3.050040; 76.000000 electrons
         Band energy:-655.202340;  BLOECHL correction:  0.000000

 total amount of memory used by VASP MPI-rank0    33674. kBytes
=======================================================================

   base      :      30000. kBytes
   nonlr-proj:       1208. kBytes
   fftplans  :        681. kBytes
   grid      :       1230. kBytes
   one-center:          3. kBytes
   wavefun   :        552. kBytes
 
  
  
 General timing and accounting informations for this job:
 ========================================================
  
                  Total CPU time used (sec):        4.070
                            User time (sec):        3.633
                          System time (sec):        0.437
                         Elapsed time (sec):        5.394
  
                   Maximum memory used (kb):      160228.
                   Average memory used (kb):           0.
  
                          Minor page faults:        20975
                          Major page faults:           85
                 Voluntary context switches:         1861
