unknown system                          
           1
     7.166537    0.000000    0.000000
     0.000000    5.682428    0.000000
     0.000000    0.000000    6.926355
   P    S    Li
   2   8   6
Direct configuration=     1
   0.00000000  0.79264463  0.26684468
   0.50000000  0.20735537  0.76684468
   0.23094519  0.58267791  0.22986434
   0.26905481  0.41732209  0.72986434
   0.73094519  0.41732209  0.72986434
   0.76905481  0.58267791  0.22986434
   0.00000000  0.99482381  0.02148775
   0.50000000  0.00517619  0.52148775
   0.00000000  0.96582832  0.51852798
   0.50000000  0.03417168  0.01852798
   0.00000000  0.33736114  0.96379712
   0.50000000  0.66263886  0.46379712
   0.23197824  0.70172488  0.95524999
   0.26802176  0.29827512  0.45524999
   0.73197824  0.29827512  0.45524999
   0.76802176  0.70172488  0.95524999
