  16  16   0   0
  0.1803581E+02  0.7580224E-09  0.6333473E-09  0.6010791E-09  0.5000000E-15
  1.000000000000000E-004
  CAR 
 unknown system                          
     11.18329607    -43.78947230  301      2.25022121      1.00000000
    -43.789  0.0000E+00  0.0000E+00
    -43.606  0.0000E+00  0.0000E+00
    -43.423  0.0000E+00  0.0000E+00
    -43.240  0.0000E+00  0.0000E+00
    -43.057  0.0000E+00  0.0000E+00
    -42.873  0.0000E+00  0.0000E+00
    -42.690  0.0000E+00  0.0000E+00
    -42.507  0.0000E+00  0.0000E+00
    -42.324  0.0000E+00  0.0000E+00
    -42.140  0.0000E+00  0.0000E+00
    -41.957  0.0000E+00  0.0000E+00
    -41.774  0.0000E+00  0.0000E+00
    -41.591  0.0000E+00  0.0000E+00
    -41.407  0.0000E+00  0.0000E+00
    -41.224  0.0000E+00  0.4000E+01
    -41.041  0.0000E+00  0.4000E+01
    -40.858  0.0000E+00  0.4000E+01
    -40.674  0.0000E+00  0.4000E+01
    -40.491  0.0000E+00  0.1200E+02
    -40.308  0.0000E+00  0.1200E+02
    -40.125  0.0000E+00  0.1200E+02
    -39.941  0.0000E+00  0.1200E+02
    -39.758  0.0000E+00  0.1200E+02
    -39.575  0.0000E+00  0.1200E+02
    -39.392  0.0000E+00  0.1200E+02
    -39.208  0.0000E+00  0.1200E+02
    -39.025  0.0000E+00  0.1200E+02
    -38.842  0.0000E+00  0.1200E+02
    -38.659  0.0000E+00  0.1200E+02
    -38.475  0.0000E+00  0.1200E+02
    -38.292  0.0000E+00  0.1200E+02
    -38.109  0.0000E+00  0.1200E+02
    -37.926  0.0000E+00  0.1200E+02
    -37.742  0.0000E+00  0.1200E+02
    -37.559  0.0000E+00  0.1200E+02
    -37.376  0.0000E+00  0.1200E+02
    -37.193  0.0000E+00  0.1200E+02
    -37.009  0.0000E+00  0.1200E+02
    -36.826  0.0000E+00  0.1200E+02
    -36.643  0.0000E+00  0.1200E+02
    -36.460  0.0000E+00  0.1200E+02
    -36.277  0.0000E+00  0.1200E+02
    -36.093  0.0000E+00  0.1200E+02
    -35.910  0.0000E+00  0.1200E+02
    -35.727  0.0000E+00  0.1200E+02
    -35.544  0.0000E+00  0.1200E+02
    -35.360  0.0000E+00  0.1200E+02
    -35.177  0.0000E+00  0.1200E+02
    -34.994  0.0000E+00  0.1200E+02
    -34.811  0.0000E+00  0.1200E+02
    -34.627  0.0000E+00  0.1200E+02
    -34.444  0.0000E+00  0.1200E+02
    -34.261  0.0000E+00  0.1200E+02
    -34.078  0.0000E+00  0.1200E+02
    -33.894  0.0000E+00  0.1200E+02
    -33.711  0.0000E+00  0.1200E+02
    -33.528  0.0000E+00  0.1200E+02
    -33.345  0.0000E+00  0.1200E+02
    -33.161  0.0000E+00  0.1200E+02
    -32.978  0.0000E+00  0.1200E+02
    -32.795  0.0000E+00  0.1200E+02
    -32.612  0.0000E+00  0.1200E+02
    -32.428  0.0000E+00  0.1200E+02
    -32.245  0.0000E+00  0.1200E+02
    -32.062  0.0000E+00  0.1200E+02
    -31.879  0.0000E+00  0.1200E+02
    -31.695  0.0000E+00  0.1200E+02
    -31.512  0.0000E+00  0.1200E+02
    -31.329  0.0000E+00  0.1200E+02
    -31.146  0.0000E+00  0.1200E+02
    -30.962  0.0000E+00  0.1200E+02
    -30.779  0.0000E+00  0.1200E+02
    -30.596  0.0000E+00  0.1200E+02
    -30.413  0.0000E+00  0.1200E+02
    -30.230  0.0000E+00  0.1200E+02
    -30.046  0.0000E+00  0.1200E+02
    -29.863  0.0000E+00  0.1200E+02
    -29.680  0.0000E+00  0.1200E+02
    -29.497  0.0000E+00  0.1200E+02
    -29.313  0.0000E+00  0.1200E+02
    -29.130  0.0000E+00  0.1200E+02
    -28.947  0.0000E+00  0.1200E+02
    -28.764  0.0000E+00  0.1200E+02
    -28.580  0.0000E+00  0.1200E+02
    -28.397  0.0000E+00  0.1200E+02
    -28.214  0.0000E+00  0.1200E+02
    -28.031  0.0000E+00  0.1200E+02
    -27.847  0.0000E+00  0.1200E+02
    -27.664  0.0000E+00  0.1200E+02
    -27.481  0.0000E+00  0.1200E+02
    -27.298  0.0000E+00  0.1200E+02
    -27.114  0.0000E+00  0.1200E+02
    -26.931  0.0000E+00  0.1200E+02
    -26.748  0.0000E+00  0.1200E+02
    -26.565  0.0000E+00  0.1200E+02
    -26.381  0.0000E+00  0.1200E+02
    -26.198  0.0000E+00  0.1200E+02
    -26.015  0.0000E+00  0.1200E+02
    -25.832  0.0000E+00  0.1200E+02
    -25.648  0.0000E+00  0.1200E+02
    -25.465  0.0000E+00  0.1200E+02
    -25.282  0.0000E+00  0.1200E+02
    -25.099  0.0000E+00  0.1200E+02
    -24.915  0.0000E+00  0.1200E+02
    -24.732  0.0000E+00  0.1200E+02
    -24.549  0.0000E+00  0.1200E+02
    -24.366  0.0000E+00  0.1200E+02
    -24.183  0.0000E+00  0.1200E+02
    -23.999  0.0000E+00  0.1200E+02
    -23.816  0.0000E+00  0.1200E+02
    -23.633  0.0000E+00  0.1200E+02
    -23.450  0.0000E+00  0.1200E+02
    -23.266  0.0000E+00  0.1200E+02
    -23.083  0.0000E+00  0.1200E+02
    -22.900  0.0000E+00  0.1200E+02
    -22.717  0.0000E+00  0.1200E+02
    -22.533  0.0000E+00  0.1200E+02
    -22.350  0.0000E+00  0.1200E+02
    -22.167  0.0000E+00  0.1200E+02
    -21.984  0.0000E+00  0.1200E+02
    -21.800  0.0000E+00  0.1200E+02
    -21.617  0.0000E+00  0.1200E+02
    -21.434  0.0000E+00  0.1200E+02
    -21.251  0.0000E+00  0.1200E+02
    -21.067  0.0000E+00  0.1200E+02
    -20.884  0.0000E+00  0.1200E+02
    -20.701  0.0000E+00  0.1200E+02
    -20.518  0.0000E+00  0.1200E+02
    -20.334  0.0000E+00  0.1200E+02
    -20.151  0.0000E+00  0.1200E+02
    -19.968  0.0000E+00  0.1200E+02
    -19.785  0.0000E+00  0.1200E+02
    -19.601  0.0000E+00  0.1200E+02
    -19.418  0.0000E+00  0.1200E+02
    -19.235  0.0000E+00  0.1200E+02
    -19.052  0.0000E+00  0.1200E+02
    -18.868  0.0000E+00  0.1200E+02
    -18.685  0.0000E+00  0.1200E+02
    -18.502  0.0000E+00  0.1200E+02
    -18.319  0.0000E+00  0.1200E+02
    -18.136  0.0000E+00  0.1200E+02
    -17.952  0.0000E+00  0.1200E+02
    -17.769  0.0000E+00  0.1200E+02
    -17.586  0.0000E+00  0.1200E+02
    -17.403  0.0000E+00  0.1200E+02
    -17.219  0.0000E+00  0.1200E+02
    -17.036  0.0000E+00  0.1200E+02
    -16.853  0.0000E+00  0.1200E+02
    -16.670  0.0000E+00  0.1200E+02
    -16.486  0.0000E+00  0.1200E+02
    -16.303  0.0000E+00  0.1200E+02
    -16.120  0.0000E+00  0.1200E+02
    -15.937  0.0000E+00  0.1200E+02
    -15.753  0.0000E+00  0.1200E+02
    -15.570  0.0000E+00  0.1200E+02
    -15.387  0.0000E+00  0.1200E+02
    -15.204  0.0000E+00  0.1200E+02
    -15.020  0.0000E+00  0.1200E+02
    -14.837  0.0000E+00  0.1200E+02
    -14.654  0.0000E+00  0.1200E+02
    -14.471  0.0000E+00  0.1200E+02
    -14.287  0.0000E+00  0.1200E+02
    -14.104  0.0000E+00  0.1200E+02
    -13.921  0.0000E+00  0.1200E+02
    -13.738  0.0000E+00  0.1200E+02
    -13.554  0.0000E+00  0.1200E+02
    -13.371  0.0000E+00  0.1200E+02
    -13.188  0.0000E+00  0.1200E+02
    -13.005  0.0000E+00  0.1200E+02
    -12.821  0.0000E+00  0.1200E+02
    -12.638  0.2386E-01  0.1200E+02
    -12.455  0.0000E+00  0.1600E+02
    -12.272  0.0000E+00  0.1600E+02
    -12.089  0.0000E+00  0.1600E+02
    -11.905  0.0000E+00  0.1600E+02
    -11.722  0.0000E+00  0.1600E+02
    -11.539  0.0000E+00  0.1600E+02
    -11.356  0.0000E+00  0.1600E+02
    -11.172  0.0000E+00  0.1600E+02
    -10.989  0.0000E+00  0.1600E+02
    -10.806  0.0000E+00  0.1600E+02
    -10.623  0.0000E+00  0.1600E+02
    -10.439  0.0000E+00  0.1600E+02
    -10.256  0.0000E+00  0.1600E+02
    -10.073  0.0000E+00  0.1600E+02
     -9.890  0.0000E+00  0.1600E+02
     -9.706  0.0000E+00  0.1600E+02
     -9.523  0.2274E+02  0.2018E+02
     -9.340  0.1572E+02  0.2754E+02
     -9.157  0.0000E+00  0.2800E+02
     -8.973  0.0000E+00  0.2800E+02
     -8.790  0.0000E+00  0.2800E+02
     -8.607  0.0000E+00  0.2800E+02
     -8.424  0.0000E+00  0.2800E+02
     -8.240  0.0000E+00  0.2800E+02
     -8.057  0.0000E+00  0.2800E+02
     -7.874  0.0000E+00  0.2800E+02
     -7.691  0.0000E+00  0.2800E+02
     -7.507  0.0000E+00  0.2800E+02
     -7.324  0.0000E+00  0.2800E+02
     -7.141  0.0000E+00  0.2800E+02
     -6.958  0.0000E+00  0.2800E+02
     -6.774  0.0000E+00  0.2800E+02
     -6.591  0.0000E+00  0.2800E+02
     -6.408  0.0000E+00  0.2800E+02
     -6.225  0.0000E+00  0.2800E+02
     -6.042  0.0000E+00  0.2800E+02
     -5.858  0.0000E+00  0.2800E+02
     -5.675  0.0000E+00  0.2800E+02
     -5.492  0.1605E+01  0.2809E+02
     -5.309  0.1063E+02  0.2936E+02
     -5.125  0.4095E+01  0.3192E+02
     -4.942  0.0000E+00  0.3200E+02
     -4.759  0.0000E+00  0.3200E+02
     -4.576  0.0000E+00  0.3200E+02
     -4.392  0.0000E+00  0.3200E+02
     -4.209  0.0000E+00  0.3200E+02
     -4.026  0.0000E+00  0.3200E+02
     -3.843  0.0000E+00  0.3200E+02
     -3.659  0.0000E+00  0.3200E+02
     -3.476  0.0000E+00  0.3200E+02
     -3.293  0.0000E+00  0.3200E+02
     -3.110  0.0000E+00  0.3200E+02
     -2.926  0.0000E+00  0.3200E+02
     -2.743  0.0000E+00  0.3200E+02
     -2.560  0.8761E+01  0.3289E+02
     -2.377  0.1565E+02  0.3579E+02
     -2.193  0.3607E+02  0.3920E+02
     -2.010  0.0000E+00  0.4400E+02
     -1.827  0.0000E+00  0.4400E+02
     -1.644  0.0000E+00  0.4400E+02
     -1.460  0.0000E+00  0.4400E+02
     -1.277  0.0000E+00  0.4400E+02
     -1.094  0.0000E+00  0.4400E+02
     -0.911  0.0000E+00  0.4400E+02
     -0.727  0.0000E+00  0.4400E+02
     -0.544  0.0000E+00  0.4400E+02
     -0.361  0.0000E+00  0.4400E+02
     -0.178  0.2233E+02  0.4563E+02
      0.005  0.1320E+02  0.4896E+02
      0.189  0.7571E+01  0.5125E+02
      0.372  0.1185E+02  0.5254E+02
      0.555  0.6232E+01  0.5406E+02
      0.738  0.4928E+01  0.5598E+02
      0.922  0.1434E+02  0.5789E+02
      1.105  0.1299E+02  0.6073E+02
      1.288  0.7348E+01  0.6311E+02
      1.471  0.6635E+01  0.6439E+02
      1.655  0.1423E+02  0.6765E+02
      1.838  0.2194E+02  0.7052E+02
      2.021  0.2862E+02  0.7418E+02
      2.204  0.9533E-01  0.7600E+02
      2.388  0.0000E+00  0.7600E+02
      2.571  0.0000E+00  0.7600E+02
      2.754  0.0000E+00  0.7600E+02
      2.937  0.0000E+00  0.7600E+02
      3.121  0.0000E+00  0.7600E+02
      3.304  0.0000E+00  0.7600E+02
      3.487  0.0000E+00  0.7600E+02
      3.670  0.0000E+00  0.7600E+02
      3.854  0.0000E+00  0.7600E+02
      4.037  0.0000E+00  0.7600E+02
      4.220  0.0000E+00  0.7600E+02
      4.403  0.0000E+00  0.7600E+02
      4.587  0.0000E+00  0.7600E+02
      4.770  0.0000E+00  0.7600E+02
      4.953  0.0000E+00  0.7600E+02
      5.136  0.2793E+01  0.7621E+02
      5.320  0.4853E+01  0.7688E+02
      5.503  0.5797E+01  0.7786E+02
      5.686  0.4672E+01  0.7879E+02
      5.869  0.3498E+01  0.7957E+02
      6.053  0.5707E+00  0.8000E+02
      6.236  0.2395E+01  0.8024E+02
      6.419  0.1153E+02  0.8130E+02
      6.602  0.1181E+01  0.8408E+02
      6.785  0.1639E+02  0.8583E+02
      6.969  0.5377E+01  0.8813E+02
      7.152  0.1181E+02  0.9038E+02
      7.335  0.0000E+00  0.9200E+02
      7.518  0.0000E+00  0.9200E+02
      7.702  0.0000E+00  0.9200E+02
      7.885  0.0000E+00  0.9200E+02
      8.068  0.1827E+01  0.9206E+02
      8.251  0.6910E+01  0.9377E+02
      8.435  0.1200E+01  0.9414E+02
      8.618  0.1663E+01  0.9595E+02
      8.801  0.0000E+00  0.9600E+02
      8.984  0.0000E+00  0.9600E+02
      9.168  0.0000E+00  0.9600E+02
      9.351  0.0000E+00  0.9600E+02
      9.534  0.0000E+00  0.9600E+02
      9.717  0.0000E+00  0.9600E+02
      9.901  0.0000E+00  0.9600E+02
     10.084  0.0000E+00  0.9600E+02
     10.267  0.0000E+00  0.9600E+02
     10.450  0.0000E+00  0.9600E+02
     10.634  0.0000E+00  0.9600E+02
     10.817  0.0000E+00  0.9600E+02
     11.000  0.0000E+00  0.9600E+02
     11.183  0.0000E+00  0.9600E+02
