       N       E                     dE             d eps       ncg     rms          rms(c)
DAV:   1     0.498030851953E+03    0.49803E+03   -0.28558E+04   776   0.130E+03
DAV:   2    -0.125366481173E+02   -0.51057E+03   -0.48739E+03   920   0.310E+02
DAV:   3    -0.722782507998E+02   -0.59742E+02   -0.59415E+02  1080   0.956E+01
DAV:   4    -0.791806468048E+02   -0.69024E+01   -0.68826E+01  1416   0.306E+01
DAV:   5    -0.800027123851E+02   -0.82207E+00   -0.82193E+00  1096   0.719E+00    0.217E+01
RMM:   6    -0.776418528448E+02    0.23609E+01   -0.72536E+00   888   0.615E+00    0.147E+01
RMM:   7    -0.772182333452E+02    0.42362E+00   -0.20834E+00   964   0.372E+00    0.510E+00
RMM:   8    -0.771515144995E+02    0.66719E-01   -0.24508E-01  1014   0.147E+00    0.480E-01
RMM:   9    -0.771457367736E+02    0.57777E-02   -0.26081E-02  1158   0.498E-01    0.274E-01
RMM:  10    -0.771462141924E+02   -0.47742E-03   -0.70247E-03  1266   0.220E-01    0.116E-01
RMM:  11    -0.771464758706E+02   -0.26168E-03   -0.30443E-03  1227   0.125E-01    0.235E-02
RMM:  12    -0.771465915020E+02   -0.11563E-03   -0.14293E-03  1149   0.807E-02    0.146E-02
RMM:  13    -0.771466443058E+02   -0.52804E-04   -0.61046E-04   823   0.551E-02    0.101E-02
RMM:  14    -0.771466617102E+02   -0.17404E-04   -0.22308E-04   839   0.454E-02    0.710E-03
RMM:  15    -0.771466702716E+02   -0.85614E-05   -0.13012E-04   813   0.401E-02
   1 F= -.77146670E+02 E0= -.77146670E+02  d E =0.000000E+00
