<?xml version="1.0" encoding="ISO-8859-1"?>
<modeling>
 <generator>
  <i name="program" type="string">vasp </i>
  <i name="version" type="string">5.4.4.18Apr17-6-g9f103f2a35  </i>
  <i name="subversion" type="string">(build Feb 28 2020 14:15:47) complex            parallel </i>
  <i name="platform" type="string">LinuxIFC </i>
  <i name="date" type="string">2022 08 06 </i>
  <i name="time" type="string">22:01:50 </i>
 </generator>
 <incar>
  <i type="int" name="ISTART">     0</i>
  <i type="string" name="PREC">accurate</i>
  <i type="string" name="ALGO"> FAST</i>
  <i type="int" name="ISPIN">     1</i>
  <i type="int" name="ICHARG">     2</i>
  <i type="int" name="INIWAV">     1</i>
  <i type="int" name="NELM">   100</i>
  <i type="int" name="IBRION">     2</i>
  <i name="EDIFF">      0.00002000</i>
  <i name="EDIFFG">      0.00020000</i>
  <i type="int" name="NSW">     0</i>
  <i type="int" name="ISIF">     7</i>
  <i name="ENCUT">    420.00000000</i>
  <i type="string" name="LREAL"> AUTO</i>
  <i type="int" name="ISMEAR">    -5</i>
  <i type="logical" name="LWAVE"> F  </i>
  <i type="logical" name="LCHARG"> F  </i>
  <v type="int" name="KPOINT_BSE">    -1     0     0     0</v>
  <i type="int" name="NELM">   100</i>
 </incar>
 <structure name="primitive_cell" >
  <crystal>
   <varray name="basis" >
    <v>       7.58022417       0.00000000       0.00000000 </v>
    <v>       0.00000000       6.33347261       0.00000000 </v>
    <v>       0.00000000       0.00000000       6.01079077 </v>
   </varray>
   <i name="volume">    288.57290863 </i>
   <varray name="rec_basis" >
    <v>       0.13192222       0.00000000       0.00000000 </v>
    <v>       0.00000000       0.15789126       0.00000000 </v>
    <v>       0.00000000       0.00000000       0.16636746 </v>
   </varray>
  </crystal>
  <varray name="positions" >
   <v>       0.00000000       0.31931485       0.30030685 </v>
   <v>       0.00000000      -0.37032667       0.21368043 </v>
   <v>      -0.22019414       0.17849478       0.17565329 </v>
   <v>       0.22019414       0.17849478       0.17565329 </v>
   <v>       0.00000000       0.28389685      -0.36258999 </v>
   <v>       0.00000000      -0.34261263      -0.21257842 </v>
   <v>      -0.24408998      -0.18655172       0.30123299 </v>
   <v>       0.24408998      -0.18655172       0.30123299 </v>
   <v>      -0.25591002       0.18655172      -0.19876701 </v>
   <v>       0.25591002       0.18655172      -0.19876701 </v>
   <v>       0.50000000       0.34261263       0.28742158 </v>
   <v>       0.27980586      -0.17849478      -0.32434671 </v>
   <v>      -0.27980586      -0.17849478      -0.32434671 </v>
   <v>       0.50000000       0.37032667      -0.28631957 </v>
   <v>       0.50000000      -0.28389685       0.13741001 </v>
   <v>       0.50000000      -0.31931485      -0.19969315 </v>
  </varray>
 </structure>
 <varray name="primitive_index" >
  <v type="int" >        1 </v>
  <v type="int" >        7 </v>
  <v type="int" >        6 </v>
  <v type="int" >        3 </v>
  <v type="int" >        9 </v>
  <v type="int" >       11 </v>
  <v type="int" >       15 </v>
  <v type="int" >       14 </v>
  <v type="int" >       16 </v>
  <v type="int" >       13 </v>
  <v type="int" >       12 </v>
  <v type="int" >        4 </v>
  <v type="int" >        5 </v>
  <v type="int" >        8 </v>
  <v type="int" >       10 </v>
  <v type="int" >        2 </v>
 </varray>
 <kpoints>
  <generation param="Monkhorst-Pack">
   <v type="int" name="divisions">       3        3        3 </v>
   <v name="usershift">      0.00000000       0.00000000       0.00000000 </v>
   <v name="genvec1">      0.33333333       0.00000000       0.00000000 </v>
   <v name="genvec2">      0.00000000       0.33333333       0.00000000 </v>
   <v name="genvec3">      0.00000000       0.00000000       0.33333333 </v>
   <v name="shift">      0.00000000       0.00000000       0.00000000 </v>
  </generation>
  <varray name="kpointlist" >
   <v>       0.00000000       0.00000000       0.00000000 </v>
   <v>       0.33333333       0.00000000       0.00000000 </v>
   <v>       0.00000000       0.33333333       0.00000000 </v>
   <v>       0.33333333       0.33333333       0.00000000 </v>
   <v>       0.00000000       0.00000000       0.33333333 </v>
   <v>       0.33333333       0.00000000       0.33333333 </v>
   <v>       0.00000000       0.33333333       0.33333333 </v>
   <v>       0.33333333       0.33333333       0.33333333 </v>
  </varray>
  <varray name="weights" >
   <v>       0.03703704 </v>
   <v>       0.07407407 </v>
   <v>       0.07407407 </v>
   <v>       0.14814815 </v>
   <v>       0.07407407 </v>
   <v>       0.14814815 </v>
   <v>       0.14814815 </v>
   <v>       0.29629630 </v>
  </varray>
  <varray name="tetrahedronlist"  type="int" >
   <v type="int" >        2        1        2        4        5 </v>
   <v type="int" >        2        1        3        4        5 </v>
   <v type="int" >        2        3        4        5        7 </v>
   <v type="int" >        2        2        4        5        6 </v>
   <v type="int" >        2        4        5        6        8 </v>
   <v type="int" >        2        4        5        7        8 </v>
   <v type="int" >        2        2        2        4        6 </v>
   <v type="int" >        2        2        4        4        6 </v>
   <v type="int" >        2        4        4        6        8 </v>
   <v type="int" >        2        2        4        6        6 </v>
   <v type="int" >        2        4        6        6        8 </v>
   <v type="int" >        2        4        6        8        8 </v>
   <v type="int" >        2        1        2        3        6 </v>
   <v type="int" >        2        2        3        4        6 </v>
   <v type="int" >        2        3        4        6        8 </v>
   <v type="int" >        2        1        3        5        6 </v>
   <v type="int" >        2        3        5        6        7 </v>
   <v type="int" >        2        3        6        7        8 </v>
   <v type="int" >        2        3        4        4        7 </v>
   <v type="int" >        2        3        3        4        7 </v>
   <v type="int" >        2        3        4        7        7 </v>
   <v type="int" >        2        4        4        7        8 </v>
   <v type="int" >        2        4        7        8        8 </v>
   <v type="int" >        2        4        7        7        8 </v>
   <v type="int" >        4        4        4        4        8 </v>
   <v type="int" >        4        4        4        8        8 </v>
   <v type="int" >        4        4        8        8        8 </v>
   <v type="int" >        2        3        3        4        8 </v>
   <v type="int" >        2        3        4        4        8 </v>
   <v type="int" >        2        3        4        8        8 </v>
   <v type="int" >        2        3        3        7        8 </v>
   <v type="int" >        2        3        7        7        8 </v>
   <v type="int" >        2        3        7        8        8 </v>
   <v type="int" >        2        2        3        4        7 </v>
   <v type="int" >        2        1        2        3        7 </v>
   <v type="int" >        2        1        2        5        7 </v>
   <v type="int" >        2        2        4        7        8 </v>
   <v type="int" >        2        2        6        7        8 </v>
   <v type="int" >        2        2        5        6        7 </v>
   <v type="int" >        2        2        4        4        8 </v>
   <v type="int" >        2        2        2        4        8 </v>
   <v type="int" >        2        2        2        6        8 </v>
   <v type="int" >        2        2        4        8        8 </v>
   <v type="int" >        2        2        6        8        8 </v>
   <v type="int" >        2        2        6        6        8 </v>
   <v type="int" >        2        1        3        4        8 </v>
   <v type="int" >        2        1        2        4        8 </v>
   <v type="int" >        2        1        2        6        8 </v>
   <v type="int" >        2        1        3        7        8 </v>
   <v type="int" >        2        1        5        7        8 </v>
   <v type="int" >        2        1        5        6        8 </v>
   <v type="int" >        2        5        5        6        8 </v>
   <v type="int" >        2        5        5        7        8 </v>
   <v type="int" >        2        5        7        7        8 </v>
   <v type="int" >        2        5        6        6        8 </v>
   <v type="int" >        2        5        6        8        8 </v>
   <v type="int" >        2        5        7        8        8 </v>
   <v type="int" >        4        6        6        6        8 </v>
   <v type="int" >        4        6        6        8        8 </v>
   <v type="int" >        4        6        8        8        8 </v>
   <v type="int" >        2        5        6        6        7 </v>
   <v type="int" >        2        6        6        7        8 </v>
   <v type="int" >        2        6        7        8        8 </v>
   <v type="int" >        2        5        5        6        7 </v>
   <v type="int" >        2        5        6        7        7 </v>
   <v type="int" >        2        6        7        7        8 </v>
   <v type="int" >        4        7        7        8        8 </v>
   <v type="int" >        4        7        7        7        8 </v>
   <v type="int" >        4        7        8        8        8 </v>
   <v type="int" >        6        8        8        8        8 </v>
  </varray>
  <i name="volumeweight">      0.00617284 </i>
 </kpoints>
 <parameters>
  <separator name="general" >
   <i type="string" name="SYSTEM">unknown system</i>
   <i type="logical" name="LCOMPAT"> F  </i>
  </separator>
  <separator name="electronic" >
   <i type="string" name="PREC">accura</i>
   <i name="ENMAX">    420.00000000</i>
   <i name="ENAUG">    628.94500000</i>
   <i name="EDIFF">      0.00002000</i>
   <i type="int" name="IALGO">    68</i>
   <i type="int" name="IWAVPR">    10</i>
   <i type="int" name="NBANDS">    48</i>
   <i name="NELECT">     76.00000000</i>
   <i type="int" name="TURBO">     0</i>
   <i type="int" name="IRESTART">     0</i>
   <i type="int" name="NREBOOT">     0</i>
   <i type="int" name="NMIN">     0</i>
   <i name="EREF">      0.00000000</i>
   <separator name="electronic smearing" >
    <i type="int" name="ISMEAR">    -5</i>
    <i name="SIGMA">      0.20000000</i>
    <i name="KSPACING">      0.50000000</i>
    <i type="logical" name="KGAMMA"> T  </i>
   </separator>
   <separator name="electronic projectors" >
    <i type="logical" name="LREAL"> T  </i>
    <v name="ROPT">     -0.00025000     -0.00025000     -0.00025000</v>
    <i type="int" name="LMAXPAW">  -100</i>
    <i type="int" name="LMAXMIX">     2</i>
    <i type="logical" name="NLSPLINE"> F  </i>
   </separator>
   <separator name="electronic startup" >
    <i type="int" name="ISTART">     0</i>
    <i type="int" name="ICHARG">     2</i>
    <i type="int" name="INIWAV">     1</i>
   </separator>
   <separator name="electronic spin" >
    <i type="int" name="ISPIN">     1</i>
    <i type="logical" name="LNONCOLLINEAR"> F  </i>
    <v name="MAGMOM">      1.00000000      1.00000000      1.00000000      1.00000000      1.00000000      1.00000000      1.00000000      1.00000000      1.00000000      1.00000000      1.00000000      1.00000000      1.00000000      1.00000000      1.00000000      1.00000000</v>
    <i name="NUPDOWN">     -1.00000000</i>
    <i type="logical" name="LSORBIT"> F  </i>
    <v name="SAXIS">      0.00000000      0.00000000      1.00000000</v>
    <i type="logical" name="LSPIRAL"> F  </i>
    <v name="QSPIRAL">      0.00000000      0.00000000      0.00000000</v>
    <i type="logical" name="LZEROZ"> F  </i>
   </separator>
   <separator name="electronic exchange-correlation" >
    <i type="logical" name="LASPH"> F  </i>
    <i type="logical" name="LMETAGGA"> F  </i>
   </separator>
   <separator name="electronic convergence" >
    <i type="int" name="NELM">   100</i>
    <i type="int" name="NELMDL">    -5</i>
    <i type="int" name="NELMIN">     2</i>
    <i name="ENINI">    420.00000000</i>
    <separator name="electronic convergence detail" >
     <i type="logical" name="LDIAG"> T  </i>
     <i type="logical" name="LSUBROT"> F  </i>
     <i name="WEIMIN">      0.00000000</i>
     <i name="EBREAK">      0.00000010</i>
     <i name="DEPER">      0.30000000</i>
     <i type="int" name="NRMM">     4</i>
     <i name="TIME">      0.40000000</i>
    </separator>
   </separator>
   <separator name="electronic mixer" >
    <i name="AMIX">      0.40000000</i>
    <i name="BMIX">      1.00000000</i>
    <i name="AMIN">      0.10000000</i>
    <i name="AMIX_MAG">      1.60000000</i>
    <i name="BMIX_MAG">      1.00000000</i>
    <separator name="electronic mixer details" >
     <i type="int" name="IMIX">     4</i>
     <i type="logical" name="MIXFIRST"> F  </i>
     <i type="int" name="MAXMIX">   -45</i>
     <i name="WC">    100.00000000</i>
     <i type="int" name="INIMIX">     1</i>
     <i type="int" name="MIXPRE">     1</i>
     <i type="int" name="MREMOVE">     5</i>
    </separator>
   </separator>
   <separator name="electronic dipolcorrection" >
    <i type="logical" name="LDIPOL"> F  </i>
    <i type="logical" name="LMONO"> F  </i>
    <i type="int" name="IDIPOL">     0</i>
    <i name="EPSILON">      1.00000000</i>
    <v name="DIPOL">   -100.00000000   -100.00000000   -100.00000000</v>
    <i name="EFIELD">      0.00000000</i>
   </separator>
  </separator>
  <separator name="grids" >
   <i type="int" name="NGX">    54</i>
   <i type="int" name="NGY">    42</i>
   <i type="int" name="NGZ">    40</i>
   <i type="int" name="NGXF">   108</i>
   <i type="int" name="NGYF">    84</i>
   <i type="int" name="NGZF">    80</i>
   <i type="logical" name="ADDGRID"> F  </i>
  </separator>
  <separator name="ionic" >
   <i type="int" name="NSW">     0</i>
   <i type="int" name="IBRION">    -1</i>
   <i type="int" name="MDALGO">     0</i>
   <i type="int" name="ISIF">     7</i>
   <i name="PSTRESS">      0.00000000</i>
   <i name="EDIFFG">      0.00020000</i>
   <i type="int" name="NFREE">     1</i>
   <i name="POTIM">      0.50000000</i>
   <i name="SMASS">     -3.00000000</i>
   <i name="SCALEE">      1.00000000</i>
  </separator>
  <separator name="ionic md" >
   <i name="TEBEG">      0.00010000</i>
   <i name="TEEND">      0.00010000</i>
   <i type="int" name="NBLOCK">     1</i>
   <i type="int" name="KBLOCK">     1</i>
   <i type="int" name="NPACO">   256</i>
   <i name="APACO">     16.00000000</i>
  </separator>
  <separator name="symmetry" >
   <i type="int" name="ISYM">     2</i>
   <i name="SYMPREC">      0.00001000</i>
  </separator>
  <separator name="dos" >
   <i type="int" name="LORBIT">     0</i>
   <v name="RWIGS">     -1.00000000     -1.00000000     -1.00000000</v>
   <i type="int" name="NEDOS">   301</i>
   <i name="EMIN">     10.00000000</i>
   <i name="EMAX">    -10.00000000</i>
   <i name="EFERMI">      0.00000000</i>
  </separator>
  <separator name="writing" >
   <i type="int" name="NWRITE">     2</i>
   <i type="logical" name="LWAVE"> F  </i>
   <i type="logical" name="LDOWNSAMPLE"> F  </i>
   <i type="logical" name="LCHARG"> F  </i>
   <i type="logical" name="LPARD"> F  </i>
   <i type="logical" name="LVTOT"> F  </i>
   <i type="logical" name="LVHAR"> F  </i>
   <i type="logical" name="LELF"> F  </i>
   <i type="logical" name="LOPTICS"> F  </i>
   <v name="STM">      0.00000000      0.00000000      0.00000000      0.00000000      0.00000000      0.00000000      0.00000000</v>
  </separator>
  <separator name="performance" >
   <i type="int" name="NPAR">     4</i>
   <i type="int" name="NSIM">     4</i>
   <i type="int" name="NBLK">    -1</i>
   <i type="logical" name="LPLANE"> T  </i>
   <i type="logical" name="LSCALAPACK"> T  </i>
   <i type="logical" name="LSCAAWARE"> F  </i>
   <i type="logical" name="LSCALU"> F  </i>
   <i type="logical" name="LASYNC"> F  </i>
   <i type="logical" name="LORBITALREAL"> F  </i>
  </separator>
  <separator name="miscellaneous" >
   <i type="int" name="IDIOT">     3</i>
   <i type="int" name="ISPECIAL">     0</i>
   <i type="logical" name="LMUSIC"> F  </i>
   <v name="POMASS">     30.97400000     32.06600000      7.01000000</v>
   <v name="DARWINR">      0.00000000      0.00000000      0.00000000</v>
   <v name="DARWINV">      1.00000000      1.00000000      1.00000000</v>
   <i type="logical" name="LCORR"> T  </i>
  </separator>
  <i type="logical" name="GGA_COMPAT"> T  </i>
  <i type="logical" name="LBERRY"> F  </i>
  <i type="int" name="ICORELEVEL">     0</i>
  <i type="logical" name="LDAU"> F  </i>
  <i type="int" name="I_CONSTRAINED_M">     0</i>
  <separator name="electronic exchange-correlation" >
   <i type="string" name="GGA">--</i>
   <i type="int" name="VOSKOWN">     0</i>
   <i type="logical" name="LHFCALC"> F  </i>
   <i type="string" name="PRECFOCK"></i>
   <i type="logical" name="LSYMGRAD"> F  </i>
   <i type="logical" name="LHFONE"> F  </i>
   <i type="logical" name="LRHFCALC"> F  </i>
   <i type="logical" name="LTHOMAS"> F  </i>
   <i type="logical" name="LMODELHF"> F  </i>
   <i name="ENCUT4O">     -1.00000000</i>
   <i type="int" name="EXXOEP">     0</i>
   <i type="int" name="FOURORBIT">     0</i>
   <i name="AEXX">      0.00000000</i>
   <i name="HFALPHA">      0.00000000</i>
   <i name="MCALPHA">      0.00000000</i>
   <i name="ALDAX">      1.00000000</i>
   <i name="AGGAX">      1.00000000</i>
   <i name="ALDAC">      1.00000000</i>
   <i name="AGGAC">      1.00000000</i>
   <i type="int" name="NKREDX">     1</i>
   <i type="int" name="NKREDY">     1</i>
   <i type="int" name="NKREDZ">     1</i>
   <i type="logical" name="SHIFTRED"> F  </i>
   <i type="logical" name="ODDONLY"> F  </i>
   <i type="logical" name="EVENONLY"> F  </i>
   <i type="int" name="LMAXFOCK">     0</i>
   <i type="int" name="NMAXFOCKAE">     0</i>
   <i type="logical" name="LFOCKAEDFT"> F  </i>
   <i name="HFSCREEN">      0.00000000</i>
   <i name="HFSCREENC">      0.00000000</i>
   <i type="int" name="NBANDSGWLOW">     0</i>
  </separator>
  <separator name="vdW DFT" >
   <i type="logical" name="LUSE_VDW"> F  </i>
   <i name="Zab_VDW">     -0.84910000</i>
   <i name="PARAM1">      0.12340000</i>
   <i name="PARAM2">      1.00000000</i>
   <i name="PARAM3">      0.00000000</i>
  </separator>
  <separator name="model GW" >
   <i type="int" name="MODEL_GW">     0</i>
   <i name="MODEL_EPS0">     10.82148407</i>
   <i name="MODEL_ALPHA">      1.00000000</i>
  </separator>
  <separator name="linear response parameters" >
   <i type="logical" name="LEPSILON"> F  </i>
   <i type="logical" name="LRPA"> F  </i>
   <i type="logical" name="LNABLA"> F  </i>
   <i type="logical" name="LVEL"> F  </i>
   <i type="int" name="KINTER">     0</i>
   <i name="CSHIFT">      0.10000000</i>
   <i name="OMEGAMAX">     -1.00000000</i>
   <i name="DEG_THRESHOLD">      0.00200000</i>
   <i name="RTIME">     -0.10000000</i>
   <i name="WPLASMAI">      0.00000000</i>
   <v name="DFIELD">      0.00000000      0.00000000      0.00000000</v>
   <v name="WPLASMA">      0.00000000      0.00000000      0.00000000      0.00000000      0.00000000      0.00000000      0.00000000      0.00000000      0.00000000</v>
  </separator>
  <separator name="orbital magnetization" >
   <i type="logical" name="NUCIND"> F  </i>
   <v name="MAGPOS">      0.00000000      0.00000000      0.00000000</v>
   <i type="logical" name="LNICSALL"> T  </i>
   <i type="logical" name="ORBITALMAG"> F  </i>
   <i type="logical" name="LMAGBLOCH"> F  </i>
   <i type="logical" name="LCHIMAG"> F  </i>
   <i type="logical" name="LGAUGE"> T  </i>
   <i type="int" name="MAGATOM">     0</i>
   <v name="MAGDIPOL">      0.00000000      0.00000000      0.00000000</v>
   <v name="AVECCONST">      0.00000000      0.00000000      0.00000000</v>
  </separator>
  <separator name="response functions" >
   <i type="logical" name="LADDER"> F  </i>
   <i type="logical" name="LRPAFORCE"> F  </i>
   <i type="logical" name="LFXC"> F  </i>
   <i type="logical" name="LHARTREE"> T  </i>
   <i type="int" name="IBSE">     0</i>
   <v type="int" name="KPOINT">    -1     0     0     0</v>
   <i type="logical" name="LTCTE"> F  </i>
   <i type="logical" name="LTETE"> F  </i>
   <i type="logical" name="LTRIPLET"> F  </i>
   <i type="logical" name="LFXCEPS"> F  </i>
   <i type="logical" name="LFXHEG"> F  </i>
   <i type="int" name="NATURALO">     2</i>
   <i type="logical" name="L2ORDER"> F  </i>
   <i type="logical" name="LMP2LT"> F  </i>
   <i type="logical" name="LUSEW"> F  </i>
   <i name="ENCUTGW">     -2.00000000</i>
   <i name="ENCUTGWSOFT">     -2.00000000</i>
   <i name="ENCUTLF">     -1.00000000</i>
   <i type="int" name="LMAXMP2">    -1</i>
   <i name="SCISSOR">      0.00000000</i>
   <i type="int" name="NOMEGA">     0</i>
   <i type="int" name="NOMEGAR">     0</i>
   <i type="int" name="NBANDSGW">    -1</i>
   <i type="int" name="NBANDSO">    -1</i>
   <i type="int" name="NBANDSV">    -1</i>
   <i type="int" name="NELM">   100</i>
   <i type="int" name="NELMHF">     1</i>
   <i type="int" name="DIM">     3</i>
   <i type="int" name="ANTIRES">     0</i>
   <i name="OMEGAMAX">    -30.00000000</i>
   <i name="OMEGAMIN">    -30.00000000</i>
   <i name="OMEGATL">   -200.00000000</i>
   <i type="int" name="OMEGAGRID">   140</i>
   <i name="CSHIFT">     -0.10000000</i>
   <i type="logical" name="SELFENERGY"> F  </i>
   <i type="logical" name="LSPECTRAL"> F  </i>
   <i type="logical" name="LSPECTRALGW"> F  </i>
   <i type="logical" name="LSINGLES"> F  </i>
   <i type="logical" name="LFERMIGW"> F  </i>
   <i type="logical" name="ODDONLYGW"> F  </i>
   <i type="logical" name="EVENONLYGW"> F  </i>
   <i type="int" name="NKREDLFX">     1</i>
   <i type="int" name="NKREDLFY">     1</i>
   <i type="int" name="NKREDLFZ">     1</i>
   <i type="int" name="MAXMEM">  2800</i>
   <i type="int" name="TELESCOPE">     0</i>
   <i type="int" name="TAUPAR">     1</i>
   <i type="int" name="OMEGAPAR">    -1</i>
   <i name="LAMBDA">      1.00000000</i>
  </separator>
  <separator name="External order field" >
   <i name="OFIELD_KAPPA">      0.00000000</i>
   <v name="OFIELD_K">      0.00000000      0.00000000      0.00000000</v>
   <i name="OFIELD_Q6_NEAR">      0.00000000</i>
   <i name="OFIELD_Q6_FAR">      0.00000000</i>
   <i name="OFIELD_A">      0.00000000</i>
  </separator>
 </parameters>
 <atominfo>
  <atoms>      16 </atoms>
  <types>       3 </types>
  <array name="atoms" >
   <dimension dim="1">ion</dimension>
   <field type="string">element</field>
   <field type="int">atomtype</field>
   <set>
    <rc><c>P </c><c>   1</c></rc>
    <rc><c>P </c><c>   1</c></rc>
    <rc><c>S </c><c>   2</c></rc>
    <rc><c>S </c><c>   2</c></rc>
    <rc><c>S </c><c>   2</c></rc>
    <rc><c>S </c><c>   2</c></rc>
    <rc><c>S </c><c>   2</c></rc>
    <rc><c>S </c><c>   2</c></rc>
    <rc><c>S </c><c>   2</c></rc>
    <rc><c>S </c><c>   2</c></rc>
    <rc><c>Li</c><c>   3</c></rc>
    <rc><c>Li</c><c>   3</c></rc>
    <rc><c>Li</c><c>   3</c></rc>
    <rc><c>Li</c><c>   3</c></rc>
    <rc><c>Li</c><c>   3</c></rc>
    <rc><c>Li</c><c>   3</c></rc>
   </set>
  </array>
  <array name="atomtypes" >
   <dimension dim="1">type</dimension>
   <field type="int">atomspertype</field>
   <field type="string">element</field>
   <field>mass</field>
   <field>valence</field>
   <field type="string">pseudopotential</field>
   <set>
    <rc><c>   2</c><c>P </c><c>     30.97400000</c><c>      5.00000000</c><c>  PAW P 26Mar2009                       </c></rc>
    <rc><c>   8</c><c>S </c><c>     32.06600000</c><c>      6.00000000</c><c>  PAW S 27Mar2009                       </c></rc>
    <rc><c>   6</c><c>Li</c><c>      7.01000000</c><c>      3.00000000</c><c>  PAW Li_sv 10Sep2004                   </c></rc>
   </set>
  </array>
 </atominfo>
 <structure name="initialpos" >
  <crystal>
   <varray name="basis" >
    <v>       7.58022417       0.00000000       0.00000000 </v>
    <v>       0.00000000       6.33347261       0.00000000 </v>
    <v>       0.00000000       0.00000000       6.01079077 </v>
   </varray>
   <i name="volume">    288.57290863 </i>
   <varray name="rec_basis" >
    <v>       0.13192222       0.00000000       0.00000000 </v>
    <v>       0.00000000       0.15789126       0.00000000 </v>
    <v>       0.00000000       0.00000000       0.16636746 </v>
   </varray>
  </crystal>
  <varray name="positions" >
   <v>       0.00000000       0.31931485       0.30030685 </v>
   <v>       0.50000000       0.68068515       0.80030685 </v>
   <v>       0.22019414       0.17849478       0.17565329 </v>
   <v>       0.27980586       0.82150522       0.67565329 </v>
   <v>       0.72019414       0.82150522       0.67565329 </v>
   <v>       0.77980586       0.17849478       0.17565329 </v>
   <v>       0.00000000       0.62967333       0.21368043 </v>
   <v>       0.50000000       0.37032667       0.71368043 </v>
   <v>       0.00000000       0.28389685       0.63741001 </v>
   <v>       0.50000000       0.71610315       0.13741001 </v>
   <v>       0.00000000       0.65738737       0.78742158 </v>
   <v>       0.50000000       0.34261263       0.28742158 </v>
   <v>       0.25591002       0.18655172       0.80123299 </v>
   <v>       0.24408998       0.81344828       0.30123299 </v>
   <v>       0.75591002       0.81344828       0.30123299 </v>
   <v>       0.74408998       0.18655172       0.80123299 </v>
  </varray>
 </structure>
 <calculation>
  <scstep>
   <time name="dav">    0.20    0.21</time>
   <time name="total">    0.21    0.22</time>
   <energy>
    <i name="alphaZ">     68.38118764 </i>
    <i name="ewald">  -2728.21005611 </i>
    <i name="hartreedc">   -619.64100920 </i>
    <i name="XCdc">    181.82012155 </i>
    <i name="pawpsdc">   2494.22442938 </i>
    <i name="pawaedc">  -2541.12215007 </i>
    <i name="eentropy">      0.00000000 </i>
    <i name="bandstr">   -126.50949501 </i>
    <i name="atom">   3769.08782378 </i>
    <i name="e_fr_energy">    498.03085195 </i>
    <i name="e_wo_entrp">    498.03085195 </i>
    <i name="e_0_energy">    498.03085195 </i>
   </energy>
  </scstep>
  <scstep>
   <time name="dav">    0.20    0.20</time>
   <time name="total">    0.20    0.20</time>
   <energy>
    <i name="e_fr_energy">    -12.53664812 </i>
    <i name="e_wo_entrp">    -12.53664812 </i>
    <i name="e_0_energy">    -12.53664812 </i>
   </energy>
  </scstep>
  <scstep>
   <time name="dav">    0.22    0.22</time>
   <time name="total">    0.22    0.22</time>
   <energy>
    <i name="e_fr_energy">    -72.27825080 </i>
    <i name="e_wo_entrp">    -72.27825080 </i>
    <i name="e_0_energy">    -72.27825080 </i>
   </energy>
  </scstep>
  <scstep>
   <time name="dav">    0.28    0.28</time>
   <time name="total">    0.28    0.28</time>
   <energy>
    <i name="e_fr_energy">    -79.18064680 </i>
    <i name="e_wo_entrp">    -79.18064680 </i>
    <i name="e_0_energy">    -79.18064680 </i>
   </energy>
  </scstep>
  <scstep>
   <time name="dav">    0.23    0.23</time>
   <time name="total">    0.24    0.25</time>
   <energy>
    <i name="e_fr_energy">    -80.00271239 </i>
    <i name="e_wo_entrp">    -80.00271239 </i>
    <i name="e_0_energy">    -80.00271239 </i>
   </energy>
  </scstep>
  <scstep>
   <time name="diag">    0.05    0.05</time>
   <time name="diis">    0.08    0.08</time>
   <time name="orth">    0.01    0.01</time>
   <time name="total">    0.16    0.16</time>
   <energy>
    <i name="e_fr_energy">    -77.64185284 </i>
    <i name="e_wo_entrp">    -77.64185284 </i>
    <i name="e_0_energy">    -77.64185284 </i>
   </energy>
  </scstep>
  <scstep>
   <time name="diag">    0.05    0.05</time>
   <time name="diis">    0.09    0.09</time>
   <time name="orth">    0.01    0.01</time>
   <time name="total">    0.17    0.17</time>
   <energy>
    <i name="e_fr_energy">    -77.21823335 </i>
    <i name="e_wo_entrp">    -77.21823335 </i>
    <i name="e_0_energy">    -77.21823335 </i>
   </energy>
  </scstep>
  <scstep>
   <time name="diag">    0.05    0.05</time>
   <time name="diis">    0.09    0.09</time>
   <time name="orth">    0.01    0.01</time>
   <time name="total">    0.17    0.17</time>
   <energy>
    <i name="e_fr_energy">    -77.15151450 </i>
    <i name="e_wo_entrp">    -77.15151450 </i>
    <i name="e_0_energy">    -77.15151450 </i>
   </energy>
  </scstep>
  <scstep>
   <time name="diag">    0.05    0.05</time>
   <time name="diis">    0.10    0.10</time>
   <time name="orth">    0.01    0.01</time>
   <time name="total">    0.18    0.18</time>
   <energy>
    <i name="e_fr_energy">    -77.14573677 </i>
    <i name="e_wo_entrp">    -77.14573677 </i>
    <i name="e_0_energy">    -77.14573677 </i>
   </energy>
  </scstep>
  <scstep>
   <time name="diag">    0.05    0.05</time>
   <time name="diis">    0.12    0.12</time>
   <time name="orth">    0.01    0.01</time>
   <time name="total">    0.19    0.19</time>
   <energy>
    <i name="e_fr_energy">    -77.14621419 </i>
    <i name="e_wo_entrp">    -77.14621419 </i>
    <i name="e_0_energy">    -77.14621419 </i>
   </energy>
  </scstep>
  <scstep>
   <time name="diag">    0.05    0.05</time>
   <time name="diis">    0.12    0.12</time>
   <time name="orth">    0.01    0.01</time>
   <time name="total">    0.19    0.19</time>
   <energy>
    <i name="e_fr_energy">    -77.14647587 </i>
    <i name="e_wo_entrp">    -77.14647587 </i>
    <i name="e_0_energy">    -77.14647587 </i>
   </energy>
  </scstep>
  <scstep>
   <time name="diag">    0.05    0.05</time>
   <time name="diis">    0.10    0.10</time>
   <time name="orth">    0.01    0.01</time>
   <time name="total">    0.18    0.18</time>
   <energy>
    <i name="e_fr_energy">    -77.14659150 </i>
    <i name="e_wo_entrp">    -77.14659150 </i>
    <i name="e_0_energy">    -77.14659150 </i>
   </energy>
  </scstep>
  <scstep>
   <time name="diag">    0.05    0.05</time>
   <time name="diis">    0.08    0.08</time>
   <time name="orth">    0.01    0.01</time>
   <time name="total">    0.16    0.16</time>
   <energy>
    <i name="e_fr_energy">    -77.14664431 </i>
    <i name="e_wo_entrp">    -77.14664431 </i>
    <i name="e_0_energy">    -77.14664431 </i>
   </energy>
  </scstep>
  <scstep>
   <time name="diag">    0.05    0.05</time>
   <time name="diis">    0.08    0.08</time>
   <time name="orth">    0.01    0.01</time>
   <time name="total">    0.16    0.16</time>
   <energy>
    <i name="e_fr_energy">    -77.14666171 </i>
    <i name="e_wo_entrp">    -77.14666171 </i>
    <i name="e_0_energy">    -77.14666171 </i>
   </energy>
  </scstep>
  <scstep>
   <time name="diag">    0.05    0.05</time>
   <time name="diis">    0.08    0.08</time>
   <time name="orth">    0.01    0.01</time>
   <time name="total">    0.14    0.14</time>
   <energy>
    <i name="alphaZ">     68.38118764 </i>
    <i name="ewald">  -2728.21005611 </i>
    <i name="hartreedc">   -651.47386090 </i>
    <i name="XCdc">    185.57890281 </i>
    <i name="pawpsdc">   7354.25075025 </i>
    <i name="pawaedc">  -7404.18507350 </i>
    <i name="eentropy">      0.00000000 </i>
    <i name="bandstr">   -670.57634425 </i>
    <i name="atom">   3769.08782378 </i>
    <i name="e_fr_energy">    -77.14667027 </i>
    <i name="e_wo_entrp">    -77.14667027 </i>
    <i name="e_0_energy">    -77.14667027 </i>
   </energy>
  </scstep>
  <structure>
   <crystal>
    <varray name="basis" >
     <v>       7.58022417       0.00000000       0.00000000 </v>
     <v>       0.00000000       6.33347261       0.00000000 </v>
     <v>       0.00000000       0.00000000       6.01079077 </v>
    </varray>
    <i name="volume">    288.57290863 </i>
    <varray name="rec_basis" >
     <v>       0.13192222       0.00000000       0.00000000 </v>
     <v>       0.00000000       0.15789126       0.00000000 </v>
     <v>       0.00000000       0.00000000       0.16636746 </v>
    </varray>
   </crystal>
   <varray name="positions" >
    <v>       0.00000000       0.31931485       0.30030685 </v>
    <v>       0.50000000       0.68068515       0.80030685 </v>
    <v>       0.22019414       0.17849478       0.17565329 </v>
    <v>       0.27980586       0.82150522       0.67565329 </v>
    <v>       0.72019414       0.82150522       0.67565329 </v>
    <v>       0.77980586       0.17849478       0.17565329 </v>
    <v>       0.00000000       0.62967333       0.21368043 </v>
    <v>       0.50000000       0.37032667       0.71368043 </v>
    <v>       0.00000000       0.28389685       0.63741001 </v>
    <v>       0.50000000       0.71610315       0.13741001 </v>
    <v>       0.00000000       0.65738737       0.78742158 </v>
    <v>       0.50000000       0.34261263       0.28742158 </v>
    <v>       0.25591002       0.18655172       0.80123299 </v>
    <v>       0.24408998       0.81344828       0.30123299 </v>
    <v>       0.75591002       0.81344828       0.30123299 </v>
    <v>       0.74408998       0.18655172       0.80123299 </v>
   </varray>
  </structure>
  <varray name="forces" >
   <v>       0.00000000      -0.00583239       0.02449272 </v>
   <v>       0.00000000       0.00583239       0.02449272 </v>
   <v>      -0.05094511      -0.18967187       0.40616586 </v>
   <v>       0.05094511       0.18967187       0.40616586 </v>
   <v>      -0.05094511       0.18967187       0.40616586 </v>
   <v>       0.05094511      -0.18967187       0.40616586 </v>
   <v>       0.00000000      -0.21802916      -0.48667255 </v>
   <v>       0.00000000       0.21802916      -0.48667255 </v>
   <v>       0.00000000       0.36816989      -0.08772520 </v>
   <v>       0.00000000      -0.36816989      -0.08772520 </v>
   <v>       0.00000000      -0.24695697       0.10671124 </v>
   <v>       0.00000000       0.24695697       0.10671124 </v>
   <v>      -0.04454113      -0.28548360      -0.18456896 </v>
   <v>       0.04454113       0.28548360      -0.18456896 </v>
   <v>      -0.04454113       0.28548360      -0.18456896 </v>
   <v>       0.04454113      -0.28548360      -0.18456896 </v>
  </varray>
  <varray name="stress" >
   <v>      15.46238822       0.00000000       0.00000000 </v>
   <v>       0.00000000     -12.13012367       0.00000000 </v>
   <v>       0.00000000       0.00000000       4.63503687 </v>
  </varray>
  <energy>
   <i name="e_fr_energy">    -77.14667027 </i>
   <i name="e_wo_entrp">    -77.14667027 </i>
   <i name="e_0_energy">      0.00000000 </i>
  </energy>
  <time name="totalsc">    3.02    3.04</time>
  <eigenvalues>
   <array>
    <dimension dim="1">band</dimension>
    <dimension dim="2">kpoint</dimension>
    <dimension dim="3">spin</dimension>
    <field>eigene</field>
    <field>occ</field>
    <set>
     <set comment="spin 1">
      <set comment="kpoint 1">
       <r>  -41.2907    1.0000 </r>
       <r>  -41.2907    1.0000 </r>
       <r>  -40.6341    1.0000 </r>
       <r>  -40.6335    1.0000 </r>
       <r>  -40.6332    1.0000 </r>
       <r>  -40.6325    1.0000 </r>
       <r>  -12.6413    1.0000 </r>
       <r>  -12.4729    1.0000 </r>
       <r>   -9.5716    1.0000 </r>
       <r>   -9.5217    1.0000 </r>
       <r>   -9.4575    1.0000 </r>
       <r>   -9.4331    1.0000 </r>
       <r>   -9.3655    1.0000 </r>
       <r>   -9.2734    1.0000 </r>
       <r>   -5.6689    1.0000 </r>
       <r>   -5.0695    1.0000 </r>
       <r>   -2.6491    1.0000 </r>
       <r>   -2.6438    1.0000 </r>
       <r>   -2.5852    1.0000 </r>
       <r>   -2.2275    1.0000 </r>
       <r>   -2.1777    1.0000 </r>
       <r>   -2.1467    1.0000 </r>
       <r>    0.0057    1.0000 </r>
       <r>    0.1116    1.0000 </r>
       <r>    0.2196    1.0000 </r>
       <r>    0.2229    1.0000 </r>
       <r>    0.3601    1.0000 </r>
       <r>    0.5154    1.0000 </r>
       <r>    0.5825    1.0000 </r>
       <r>    0.9802    1.0000 </r>
       <r>    1.3860    1.0000 </r>
       <r>    1.4547    1.0000 </r>
       <r>    1.7382    1.0000 </r>
       <r>    1.7838    1.0000 </r>
       <r>    1.8709    1.0000 </r>
       <r>    1.9155    1.0000 </r>
       <r>    1.9193    1.0000 </r>
       <r>    2.0027    1.0000 </r>
       <r>    5.7375    0.0000 </r>
       <r>    5.8118    0.0000 </r>
       <r>    6.0335    0.0000 </r>
       <r>    6.1423    0.0000 </r>
       <r>    6.4064    0.0000 </r>
       <r>    7.1380    0.0000 </r>
       <r>    7.2934    0.0000 </r>
       <r>    7.3147    0.0000 </r>
       <r>    7.9611    0.0000 </r>
       <r>    8.0745    0.0000 </r>
      </set>
      <set comment="kpoint 2">
       <r>  -41.2907    1.0000 </r>
       <r>  -41.2906    1.0000 </r>
       <r>  -40.6339    1.0000 </r>
       <r>  -40.6335    1.0000 </r>
       <r>  -40.6331    1.0000 </r>
       <r>  -40.6327    1.0000 </r>
       <r>  -12.6004    1.0000 </r>
       <r>  -12.5162    1.0000 </r>
       <r>   -9.5579    1.0000 </r>
       <r>   -9.4973    1.0000 </r>
       <r>   -9.4534    1.0000 </r>
       <r>   -9.4486    1.0000 </r>
       <r>   -9.3825    1.0000 </r>
       <r>   -9.2981    1.0000 </r>
       <r>   -5.4873    1.0000 </r>
       <r>   -5.1878    1.0000 </r>
       <r>   -2.7033    1.0000 </r>
       <r>   -2.6862    1.0000 </r>
       <r>   -2.5382    1.0000 </r>
       <r>   -2.3168    1.0000 </r>
       <r>   -2.1642    1.0000 </r>
       <r>   -2.1112    1.0000 </r>
       <r>   -0.0821    1.0000 </r>
       <r>   -0.0482    1.0000 </r>
       <r>    0.2584    1.0000 </r>
       <r>    0.4591    1.0000 </r>
       <r>    0.4725    1.0000 </r>
       <r>    0.7000    1.0000 </r>
       <r>    0.9047    1.0000 </r>
       <r>    1.0263    1.0000 </r>
       <r>    1.2149    1.0000 </r>
       <r>    1.4546    1.0000 </r>
       <r>    1.5453    1.0000 </r>
       <r>    1.6037    1.0000 </r>
       <r>    1.6470    1.0000 </r>
       <r>    1.7686    1.0000 </r>
       <r>    1.8432    1.0000 </r>
       <r>    1.8971    1.0000 </r>
       <r>    5.9776    0.0000 </r>
       <r>    6.0732    0.0000 </r>
       <r>    6.2364    0.0000 </r>
       <r>    6.3653    0.0000 </r>
       <r>    6.6618    0.0000 </r>
       <r>    6.7560    0.0000 </r>
       <r>    7.1263    0.0000 </r>
       <r>    7.1968    0.0000 </r>
       <r>    8.1142    0.0000 </r>
       <r>    8.6845    0.0000 </r>
      </set>
      <set comment="kpoint 3">
       <r>  -41.2907    1.0000 </r>
       <r>  -41.2906    1.0000 </r>
       <r>  -40.6341    1.0000 </r>
       <r>  -40.6334    1.0000 </r>
       <r>  -40.6332    1.0000 </r>
       <r>  -40.6324    1.0000 </r>
       <r>  -12.5901    1.0000 </r>
       <r>  -12.4939    1.0000 </r>
       <r>   -9.6483    1.0000 </r>
       <r>   -9.5441    1.0000 </r>
       <r>   -9.4349    1.0000 </r>
       <r>   -9.4221    1.0000 </r>
       <r>   -9.3940    1.0000 </r>
       <r>   -9.3183    1.0000 </r>
       <r>   -5.4593    1.0000 </r>
       <r>   -5.1456    1.0000 </r>
       <r>   -2.7146    1.0000 </r>
       <r>   -2.4961    1.0000 </r>
       <r>   -2.3326    1.0000 </r>
       <r>   -2.2864    1.0000 </r>
       <r>   -2.1372    1.0000 </r>
       <r>   -2.1218    1.0000 </r>
       <r>   -0.1210    1.0000 </r>
       <r>    0.0125    1.0000 </r>
       <r>    0.0599    1.0000 </r>
       <r>    0.1959    1.0000 </r>
       <r>    0.3820    1.0000 </r>
       <r>    0.6982    1.0000 </r>
       <r>    0.9094    1.0000 </r>
       <r>    1.0403    1.0000 </r>
       <r>    1.1852    1.0000 </r>
       <r>    1.4586    1.0000 </r>
       <r>    1.5178    1.0000 </r>
       <r>    1.6048    1.0000 </r>
       <r>    1.6055    1.0000 </r>
       <r>    1.7554    1.0000 </r>
       <r>    2.0127    1.0000 </r>
       <r>    2.2072    1.0000 </r>
       <r>    5.0688    0.0000 </r>
       <r>    5.9609    0.0000 </r>
       <r>    6.2358    0.0000 </r>
       <r>    6.5195    0.0000 </r>
       <r>    6.6335    0.0000 </r>
       <r>    7.0031    0.0000 </r>
       <r>    7.1550    0.0000 </r>
       <r>    7.1705    0.0000 </r>
       <r>    8.0514    0.0000 </r>
       <r>    8.5382    0.0000 </r>
      </set>
      <set comment="kpoint 4">
       <r>  -41.2906    1.0000 </r>
       <r>  -41.2906    1.0000 </r>
       <r>  -40.6339    1.0000 </r>
       <r>  -40.6334    1.0000 </r>
       <r>  -40.6331    1.0000 </r>
       <r>  -40.6326    1.0000 </r>
       <r>  -12.5651    1.0000 </r>
       <r>  -12.5169    1.0000 </r>
       <r>   -9.6615    1.0000 </r>
       <r>   -9.6085    1.0000 </r>
       <r>   -9.4260    1.0000 </r>
       <r>   -9.3969    1.0000 </r>
       <r>   -9.3599    1.0000 </r>
       <r>   -9.3224    1.0000 </r>
       <r>   -5.3431    1.0000 </r>
       <r>   -5.1859    1.0000 </r>
       <r>   -2.6694    1.0000 </r>
       <r>   -2.5305    1.0000 </r>
       <r>   -2.4075    1.0000 </r>
       <r>   -2.3024    1.0000 </r>
       <r>   -2.1363    1.0000 </r>
       <r>   -2.1115    1.0000 </r>
       <r>   -0.1625    1.0000 </r>
       <r>   -0.1138    1.0000 </r>
       <r>    0.0436    1.0000 </r>
       <r>    0.3229    1.0000 </r>
       <r>    0.5472    1.0000 </r>
       <r>    0.7636    1.0000 </r>
       <r>    0.9385    1.0000 </r>
       <r>    0.9882    1.0000 </r>
       <r>    1.1153    1.0000 </r>
       <r>    1.2868    1.0000 </r>
       <r>    1.3389    1.0000 </r>
       <r>    1.5052    1.0000 </r>
       <r>    1.7260    1.0000 </r>
       <r>    1.8311    1.0000 </r>
       <r>    2.0017    1.0000 </r>
       <r>    2.0683    1.0000 </r>
       <r>    5.5247    0.0000 </r>
       <r>    6.0029    0.0000 </r>
       <r>    6.4170    0.0000 </r>
       <r>    6.5889    0.0000 </r>
       <r>    6.7949    0.0000 </r>
       <r>    6.8538    0.0000 </r>
       <r>    7.0631    0.0000 </r>
       <r>    7.1756    0.0000 </r>
       <r>    8.3126    0.0000 </r>
       <r>    8.5113    0.0000 </r>
      </set>
      <set comment="kpoint 5">
       <r>  -41.2907    1.0000 </r>
       <r>  -41.2907    1.0000 </r>
       <r>  -40.6340    1.0000 </r>
       <r>  -40.6336    1.0000 </r>
       <r>  -40.6330    1.0000 </r>
       <r>  -40.6326    1.0000 </r>
       <r>  -12.5710    1.0000 </r>
       <r>  -12.4837    1.0000 </r>
       <r>   -9.5763    1.0000 </r>
       <r>   -9.5219    1.0000 </r>
       <r>   -9.4990    1.0000 </r>
       <r>   -9.4623    1.0000 </r>
       <r>   -9.4189    1.0000 </r>
       <r>   -9.4003    1.0000 </r>
       <r>   -5.4708    1.0000 </r>
       <r>   -5.1391    1.0000 </r>
       <r>   -2.5148    1.0000 </r>
       <r>   -2.3987    1.0000 </r>
       <r>   -2.2248    1.0000 </r>
       <r>   -2.1988    1.0000 </r>
       <r>   -2.1466    1.0000 </r>
       <r>   -2.0455    1.0000 </r>
       <r>   -0.2231    1.0000 </r>
       <r>   -0.1244    1.0000 </r>
       <r>   -0.0853    1.0000 </r>
       <r>   -0.0403    1.0000 </r>
       <r>    0.3824    1.0000 </r>
       <r>    0.7748    1.0000 </r>
       <r>    0.8343    1.0000 </r>
       <r>    1.0649    1.0000 </r>
       <r>    1.1306    1.0000 </r>
       <r>    1.5082    1.0000 </r>
       <r>    1.5746    1.0000 </r>
       <r>    1.7407    1.0000 </r>
       <r>    1.7438    1.0000 </r>
       <r>    1.9013    1.0000 </r>
       <r>    1.9892    1.0000 </r>
       <r>    2.0758    1.0000 </r>
       <r>    5.1552    0.0000 </r>
       <r>    5.5693    0.0000 </r>
       <r>    6.0293    0.0000 </r>
       <r>    6.5335    0.0000 </r>
       <r>    6.8272    0.0000 </r>
       <r>    6.8503    0.0000 </r>
       <r>    7.0461    0.0000 </r>
       <r>    7.2913    0.0000 </r>
       <r>    8.2439    0.0000 </r>
       <r>    8.4986    0.0000 </r>
      </set>
      <set comment="kpoint 6">
       <r>  -41.2906    1.0000 </r>
       <r>  -41.2906    1.0000 </r>
       <r>  -40.6337    1.0000 </r>
       <r>  -40.6334    1.0000 </r>
       <r>  -40.6332    1.0000 </r>
       <r>  -40.6328    1.0000 </r>
       <r>  -12.5480    1.0000 </r>
       <r>  -12.5043    1.0000 </r>
       <r>   -9.6276    1.0000 </r>
       <r>   -9.5800    1.0000 </r>
       <r>   -9.4799    1.0000 </r>
       <r>   -9.4462    1.0000 </r>
       <r>   -9.3983    1.0000 </r>
       <r>   -9.3590    1.0000 </r>
       <r>   -5.3555    1.0000 </r>
       <r>   -5.1892    1.0000 </r>
       <r>   -2.5259    1.0000 </r>
       <r>   -2.4680    1.0000 </r>
       <r>   -2.2242    1.0000 </r>
       <r>   -2.2149    1.0000 </r>
       <r>   -2.0970    1.0000 </r>
       <r>   -2.0389    1.0000 </r>
       <r>   -0.2190    1.0000 </r>
       <r>   -0.1567    1.0000 </r>
       <r>    0.0888    1.0000 </r>
       <r>    0.1554    1.0000 </r>
       <r>    0.2338    1.0000 </r>
       <r>    0.5453    1.0000 </r>
       <r>    0.9223    1.0000 </r>
       <r>    0.9616    1.0000 </r>
       <r>    1.1647    1.0000 </r>
       <r>    1.2670    1.0000 </r>
       <r>    1.5627    1.0000 </r>
       <r>    1.6716    1.0000 </r>
       <r>    1.7443    1.0000 </r>
       <r>    1.9176    1.0000 </r>
       <r>    1.9385    1.0000 </r>
       <r>    2.0096    1.0000 </r>
       <r>    5.5053    0.0000 </r>
       <r>    5.8211    0.0000 </r>
       <r>    6.5056    0.0000 </r>
       <r>    6.5691    0.0000 </r>
       <r>    6.8177    0.0000 </r>
       <r>    6.8257    0.0000 </r>
       <r>    7.1638    0.0000 </r>
       <r>    7.3055    0.0000 </r>
       <r>    8.1595    0.0000 </r>
       <r>    8.5382    0.0000 </r>
      </set>
      <set comment="kpoint 7">
       <r>  -41.2907    1.0000 </r>
       <r>  -41.2907    1.0000 </r>
       <r>  -40.6340    1.0000 </r>
       <r>  -40.6336    1.0000 </r>
       <r>  -40.6330    1.0000 </r>
       <r>  -40.6326    1.0000 </r>
       <r>  -12.5355    1.0000 </r>
       <r>  -12.4856    1.0000 </r>
       <r>   -9.6433    1.0000 </r>
       <r>   -9.5581    1.0000 </r>
       <r>   -9.5073    1.0000 </r>
       <r>   -9.4542    1.0000 </r>
       <r>   -9.4322    1.0000 </r>
       <r>   -9.4210    1.0000 </r>
       <r>   -5.3257    1.0000 </r>
       <r>   -5.1528    1.0000 </r>
       <r>   -2.3495    1.0000 </r>
       <r>   -2.2863    1.0000 </r>
       <r>   -2.2125    1.0000 </r>
       <r>   -2.1883    1.0000 </r>
       <r>   -2.1600    1.0000 </r>
       <r>   -2.0609    1.0000 </r>
       <r>   -0.1670    1.0000 </r>
       <r>   -0.0232    1.0000 </r>
       <r>    0.0017    1.0000 </r>
       <r>    0.0961    1.0000 </r>
       <r>    0.3320    1.0000 </r>
       <r>    0.5941    1.0000 </r>
       <r>    0.8444    1.0000 </r>
       <r>    0.9378    1.0000 </r>
       <r>    1.1444    1.0000 </r>
       <r>    1.2118    1.0000 </r>
       <r>    1.5719    1.0000 </r>
       <r>    1.6308    1.0000 </r>
       <r>    1.6854    1.0000 </r>
       <r>    1.9313    1.0000 </r>
       <r>    1.9766    1.0000 </r>
       <r>    2.0082    1.0000 </r>
       <r>    5.0253    0.0000 </r>
       <r>    5.3164    0.0000 </r>
       <r>    6.3727    0.0000 </r>
       <r>    6.5220    0.0000 </r>
       <r>    6.6763    0.0000 </r>
       <r>    6.7617    0.0000 </r>
       <r>    6.8447    0.0000 </r>
       <r>    6.9784    0.0000 </r>
       <r>    8.1506    0.0000 </r>
       <r>    8.5951    0.0000 </r>
      </set>
      <set comment="kpoint 8">
       <r>  -41.2907    1.0000 </r>
       <r>  -41.2906    1.0000 </r>
       <r>  -40.6337    1.0000 </r>
       <r>  -40.6334    1.0000 </r>
       <r>  -40.6332    1.0000 </r>
       <r>  -40.6328    1.0000 </r>
       <r>  -12.5216    1.0000 </r>
       <r>  -12.4966    1.0000 </r>
       <r>   -9.6243    1.0000 </r>
       <r>   -9.5810    1.0000 </r>
       <r>   -9.5362    1.0000 </r>
       <r>   -9.4790    1.0000 </r>
       <r>   -9.4155    1.0000 </r>
       <r>   -9.4028    1.0000 </r>
       <r>   -5.2287    1.0000 </r>
       <r>   -5.1416    1.0000 </r>
       <r>   -2.4289    1.0000 </r>
       <r>   -2.3742    1.0000 </r>
       <r>   -2.1787    1.0000 </r>
       <r>   -2.1687    1.0000 </r>
       <r>   -2.0622    1.0000 </r>
       <r>   -2.0147    1.0000 </r>
       <r>   -0.2994    1.0000 </r>
       <r>   -0.2084    1.0000 </r>
       <r>   -0.1133    1.0000 </r>
       <r>    0.0953    1.0000 </r>
       <r>    0.4784    1.0000 </r>
       <r>    0.5856    1.0000 </r>
       <r>    0.8362    1.0000 </r>
       <r>    0.9586    1.0000 </r>
       <r>    1.0241    1.0000 </r>
       <r>    1.1712    1.0000 </r>
       <r>    1.5031    1.0000 </r>
       <r>    1.5831    1.0000 </r>
       <r>    1.7393    1.0000 </r>
       <r>    1.8460    1.0000 </r>
       <r>    2.0294    1.0000 </r>
       <r>    2.1441    1.0000 </r>
       <r>    5.3085    0.0000 </r>
       <r>    5.5702    0.0000 </r>
       <r>    6.4911    0.0000 </r>
       <r>    6.5577    0.0000 </r>
       <r>    6.7167    0.0000 </r>
       <r>    6.9075    0.0000 </r>
       <r>    7.0742    0.0000 </r>
       <r>    7.1704    0.0000 </r>
       <r>    8.2395    0.0000 </r>
       <r>    8.4374    0.0000 </r>
      </set>
     </set>
    </set>
   </array>
  </eigenvalues>
  <separator name="orbital magnetization" >
   <v name="MAGDIPOLOUT">      0.00000000      0.00000000      0.00000000</v>
  </separator>
  <dos>
   <i name="efermi">      2.25022121 </i>
   <total>
    <array>
     <dimension dim="1">gridpoints</dimension>
     <dimension dim="2">spin</dimension>
     <field>energy</field>
     <field>total</field>
     <field>integrated</field>
     <set>
      <set comment="spin 1">
       <r>   -43.7895     0.0000     0.0000 </r>
       <r>   -43.6062     0.0000     0.0000 </r>
       <r>   -43.4230     0.0000     0.0000 </r>
       <r>   -43.2397     0.0000     0.0000 </r>
       <r>   -43.0565     0.0000     0.0000 </r>
       <r>   -42.8733     0.0000     0.0000 </r>
       <r>   -42.6900     0.0000     0.0000 </r>
       <r>   -42.5068     0.0000     0.0000 </r>
       <r>   -42.3235     0.0000     0.0000 </r>
       <r>   -42.1403     0.0000     0.0000 </r>
       <r>   -41.9570     0.0000     0.0000 </r>
       <r>   -41.7738     0.0000     0.0000 </r>
       <r>   -41.5906     0.0000     0.0000 </r>
       <r>   -41.4073     0.0000     0.0000 </r>
       <r>   -41.2241     0.0000     4.0000 </r>
       <r>   -41.0408     0.0000     4.0000 </r>
       <r>   -40.8576     0.0000     4.0000 </r>
       <r>   -40.6743     0.0000     4.0000 </r>
       <r>   -40.4911     0.0000    12.0000 </r>
       <r>   -40.3079     0.0000    12.0000 </r>
       <r>   -40.1246     0.0000    12.0000 </r>
       <r>   -39.9414     0.0000    12.0000 </r>
       <r>   -39.7581     0.0000    12.0000 </r>
       <r>   -39.5749     0.0000    12.0000 </r>
       <r>   -39.3917     0.0000    12.0000 </r>
       <r>   -39.2084     0.0000    12.0000 </r>
       <r>   -39.0252     0.0000    12.0000 </r>
       <r>   -38.8419     0.0000    12.0000 </r>
       <r>   -38.6587     0.0000    12.0000 </r>
       <r>   -38.4754     0.0000    12.0000 </r>
       <r>   -38.2922     0.0000    12.0000 </r>
       <r>   -38.1090     0.0000    12.0000 </r>
       <r>   -37.9257     0.0000    12.0000 </r>
       <r>   -37.7425     0.0000    12.0000 </r>
       <r>   -37.5592     0.0000    12.0000 </r>
       <r>   -37.3760     0.0000    12.0000 </r>
       <r>   -37.1927     0.0000    12.0000 </r>
       <r>   -37.0095     0.0000    12.0000 </r>
       <r>   -36.8263     0.0000    12.0000 </r>
       <r>   -36.6430     0.0000    12.0000 </r>
       <r>   -36.4598     0.0000    12.0000 </r>
       <r>   -36.2765     0.0000    12.0000 </r>
       <r>   -36.0933     0.0000    12.0000 </r>
       <r>   -35.9100     0.0000    12.0000 </r>
       <r>   -35.7268     0.0000    12.0000 </r>
       <r>   -35.5436     0.0000    12.0000 </r>
       <r>   -35.3603     0.0000    12.0000 </r>
       <r>   -35.1771     0.0000    12.0000 </r>
       <r>   -34.9938     0.0000    12.0000 </r>
       <r>   -34.8106     0.0000    12.0000 </r>
       <r>   -34.6273     0.0000    12.0000 </r>
       <r>   -34.4441     0.0000    12.0000 </r>
       <r>   -34.2609     0.0000    12.0000 </r>
       <r>   -34.0776     0.0000    12.0000 </r>
       <r>   -33.8944     0.0000    12.0000 </r>
       <r>   -33.7111     0.0000    12.0000 </r>
       <r>   -33.5279     0.0000    12.0000 </r>
       <r>   -33.3446     0.0000    12.0000 </r>
       <r>   -33.1614     0.0000    12.0000 </r>
       <r>   -32.9782     0.0000    12.0000 </r>
       <r>   -32.7949     0.0000    12.0000 </r>
       <r>   -32.6117     0.0000    12.0000 </r>
       <r>   -32.4284     0.0000    12.0000 </r>
       <r>   -32.2452     0.0000    12.0000 </r>
       <r>   -32.0619     0.0000    12.0000 </r>
       <r>   -31.8787     0.0000    12.0000 </r>
       <r>   -31.6955     0.0000    12.0000 </r>
       <r>   -31.5122     0.0000    12.0000 </r>
       <r>   -31.3290     0.0000    12.0000 </r>
       <r>   -31.1457     0.0000    12.0000 </r>
       <r>   -30.9625     0.0000    12.0000 </r>
       <r>   -30.7793     0.0000    12.0000 </r>
       <r>   -30.5960     0.0000    12.0000 </r>
       <r>   -30.4128     0.0000    12.0000 </r>
       <r>   -30.2295     0.0000    12.0000 </r>
       <r>   -30.0463     0.0000    12.0000 </r>
       <r>   -29.8630     0.0000    12.0000 </r>
       <r>   -29.6798     0.0000    12.0000 </r>
       <r>   -29.4966     0.0000    12.0000 </r>
       <r>   -29.3133     0.0000    12.0000 </r>
       <r>   -29.1301     0.0000    12.0000 </r>
       <r>   -28.9468     0.0000    12.0000 </r>
       <r>   -28.7636     0.0000    12.0000 </r>
       <r>   -28.5803     0.0000    12.0000 </r>
       <r>   -28.3971     0.0000    12.0000 </r>
       <r>   -28.2139     0.0000    12.0000 </r>
       <r>   -28.0306     0.0000    12.0000 </r>
       <r>   -27.8474     0.0000    12.0000 </r>
       <r>   -27.6641     0.0000    12.0000 </r>
       <r>   -27.4809     0.0000    12.0000 </r>
       <r>   -27.2976     0.0000    12.0000 </r>
       <r>   -27.1144     0.0000    12.0000 </r>
       <r>   -26.9312     0.0000    12.0000 </r>
       <r>   -26.7479     0.0000    12.0000 </r>
       <r>   -26.5647     0.0000    12.0000 </r>
       <r>   -26.3814     0.0000    12.0000 </r>
       <r>   -26.1982     0.0000    12.0000 </r>
       <r>   -26.0149     0.0000    12.0000 </r>
       <r>   -25.8317     0.0000    12.0000 </r>
       <r>   -25.6485     0.0000    12.0000 </r>
       <r>   -25.4652     0.0000    12.0000 </r>
       <r>   -25.2820     0.0000    12.0000 </r>
       <r>   -25.0987     0.0000    12.0000 </r>
       <r>   -24.9155     0.0000    12.0000 </r>
       <r>   -24.7322     0.0000    12.0000 </r>
       <r>   -24.5490     0.0000    12.0000 </r>
       <r>   -24.3658     0.0000    12.0000 </r>
       <r>   -24.1825     0.0000    12.0000 </r>
       <r>   -23.9993     0.0000    12.0000 </r>
       <r>   -23.8160     0.0000    12.0000 </r>
       <r>   -23.6328     0.0000    12.0000 </r>
       <r>   -23.4495     0.0000    12.0000 </r>
       <r>   -23.2663     0.0000    12.0000 </r>
       <r>   -23.0831     0.0000    12.0000 </r>
       <r>   -22.8998     0.0000    12.0000 </r>
       <r>   -22.7166     0.0000    12.0000 </r>
       <r>   -22.5333     0.0000    12.0000 </r>
       <r>   -22.3501     0.0000    12.0000 </r>
       <r>   -22.1669     0.0000    12.0000 </r>
       <r>   -21.9836     0.0000    12.0000 </r>
       <r>   -21.8004     0.0000    12.0000 </r>
       <r>   -21.6171     0.0000    12.0000 </r>
       <r>   -21.4339     0.0000    12.0000 </r>
       <r>   -21.2506     0.0000    12.0000 </r>
       <r>   -21.0674     0.0000    12.0000 </r>
       <r>   -20.8842     0.0000    12.0000 </r>
       <r>   -20.7009     0.0000    12.0000 </r>
       <r>   -20.5177     0.0000    12.0000 </r>
       <r>   -20.3344     0.0000    12.0000 </r>
       <r>   -20.1512     0.0000    12.0000 </r>
       <r>   -19.9679     0.0000    12.0000 </r>
       <r>   -19.7847     0.0000    12.0000 </r>
       <r>   -19.6015     0.0000    12.0000 </r>
       <r>   -19.4182     0.0000    12.0000 </r>
       <r>   -19.2350     0.0000    12.0000 </r>
       <r>   -19.0517     0.0000    12.0000 </r>
       <r>   -18.8685     0.0000    12.0000 </r>
       <r>   -18.6852     0.0000    12.0000 </r>
       <r>   -18.5020     0.0000    12.0000 </r>
       <r>   -18.3188     0.0000    12.0000 </r>
       <r>   -18.1355     0.0000    12.0000 </r>
       <r>   -17.9523     0.0000    12.0000 </r>
       <r>   -17.7690     0.0000    12.0000 </r>
       <r>   -17.5858     0.0000    12.0000 </r>
       <r>   -17.4025     0.0000    12.0000 </r>
       <r>   -17.2193     0.0000    12.0000 </r>
       <r>   -17.0361     0.0000    12.0000 </r>
       <r>   -16.8528     0.0000    12.0000 </r>
       <r>   -16.6696     0.0000    12.0000 </r>
       <r>   -16.4863     0.0000    12.0000 </r>
       <r>   -16.3031     0.0000    12.0000 </r>
       <r>   -16.1198     0.0000    12.0000 </r>
       <r>   -15.9366     0.0000    12.0000 </r>
       <r>   -15.7534     0.0000    12.0000 </r>
       <r>   -15.5701     0.0000    12.0000 </r>
       <r>   -15.3869     0.0000    12.0000 </r>
       <r>   -15.2036     0.0000    12.0000 </r>
       <r>   -15.0204     0.0000    12.0000 </r>
       <r>   -14.8371     0.0000    12.0000 </r>
       <r>   -14.6539     0.0000    12.0000 </r>
       <r>   -14.4707     0.0000    12.0000 </r>
       <r>   -14.2874     0.0000    12.0000 </r>
       <r>   -14.1042     0.0000    12.0000 </r>
       <r>   -13.9209     0.0000    12.0000 </r>
       <r>   -13.7377     0.0000    12.0000 </r>
       <r>   -13.5544     0.0000    12.0000 </r>
       <r>   -13.3712     0.0000    12.0000 </r>
       <r>   -13.1880     0.0000    12.0000 </r>
       <r>   -13.0047     0.0000    12.0000 </r>
       <r>   -12.8215     0.0000    12.0000 </r>
       <r>   -12.6382     0.0239    12.0000 </r>
       <r>   -12.4550     0.0000    16.0000 </r>
       <r>   -12.2718     0.0000    16.0000 </r>
       <r>   -12.0885     0.0000    16.0000 </r>
       <r>   -11.9053     0.0000    16.0000 </r>
       <r>   -11.7220     0.0000    16.0000 </r>
       <r>   -11.5388     0.0000    16.0000 </r>
       <r>   -11.3555     0.0000    16.0000 </r>
       <r>   -11.1723     0.0000    16.0000 </r>
       <r>   -10.9891     0.0000    16.0000 </r>
       <r>   -10.8058     0.0000    16.0000 </r>
       <r>   -10.6226     0.0000    16.0000 </r>
       <r>   -10.4393     0.0000    16.0000 </r>
       <r>   -10.2561     0.0000    16.0000 </r>
       <r>   -10.0728     0.0000    16.0000 </r>
       <r>    -9.8896     0.0000    16.0000 </r>
       <r>    -9.7064     0.0000    16.0000 </r>
       <r>    -9.5231    22.7392    20.1776 </r>
       <r>    -9.3399    15.7235    27.5369 </r>
       <r>    -9.1566     0.0000    28.0000 </r>
       <r>    -8.9734     0.0000    28.0000 </r>
       <r>    -8.7901     0.0000    28.0000 </r>
       <r>    -8.6069     0.0000    28.0000 </r>
       <r>    -8.4237     0.0000    28.0000 </r>
       <r>    -8.2404     0.0000    28.0000 </r>
       <r>    -8.0572     0.0000    28.0000 </r>
       <r>    -7.8739     0.0000    28.0000 </r>
       <r>    -7.6907     0.0000    28.0000 </r>
       <r>    -7.5074     0.0000    28.0000 </r>
       <r>    -7.3242     0.0000    28.0000 </r>
       <r>    -7.1410     0.0000    28.0000 </r>
       <r>    -6.9577     0.0000    28.0000 </r>
       <r>    -6.7745     0.0000    28.0000 </r>
       <r>    -6.5912     0.0000    28.0000 </r>
       <r>    -6.4080     0.0000    28.0000 </r>
       <r>    -6.2247     0.0000    28.0000 </r>
       <r>    -6.0415     0.0000    28.0000 </r>
       <r>    -5.8583     0.0000    28.0000 </r>
       <r>    -5.6750     0.0000    28.0000 </r>
       <r>    -5.4918     1.6052    28.0948 </r>
       <r>    -5.3085    10.6283    29.3580 </r>
       <r>    -5.1253     4.0953    31.9238 </r>
       <r>    -4.9420     0.0000    32.0000 </r>
       <r>    -4.7588     0.0000    32.0000 </r>
       <r>    -4.5756     0.0000    32.0000 </r>
       <r>    -4.3923     0.0000    32.0000 </r>
       <r>    -4.2091     0.0000    32.0000 </r>
       <r>    -4.0258     0.0000    32.0000 </r>
       <r>    -3.8426     0.0000    32.0000 </r>
       <r>    -3.6594     0.0000    32.0000 </r>
       <r>    -3.4761     0.0000    32.0000 </r>
       <r>    -3.2929     0.0000    32.0000 </r>
       <r>    -3.1096     0.0000    32.0000 </r>
       <r>    -2.9264     0.0000    32.0000 </r>
       <r>    -2.7431     0.0000    32.0000 </r>
       <r>    -2.5599     8.7610    32.8926 </r>
       <r>    -2.3767    15.6452    35.7917 </r>
       <r>    -2.1934    36.0737    39.1957 </r>
       <r>    -2.0102     0.0000    44.0000 </r>
       <r>    -1.8269     0.0000    44.0000 </r>
       <r>    -1.6437     0.0000    44.0000 </r>
       <r>    -1.4604     0.0000    44.0000 </r>
       <r>    -1.2772     0.0000    44.0000 </r>
       <r>    -1.0940     0.0000    44.0000 </r>
       <r>    -0.9107     0.0000    44.0000 </r>
       <r>    -0.7275     0.0000    44.0000 </r>
       <r>    -0.5442     0.0000    44.0000 </r>
       <r>    -0.3610     0.0000    44.0000 </r>
       <r>    -0.1777    22.3331    45.6336 </r>
       <r>     0.0055    13.1978    48.9564 </r>
       <r>     0.1887     7.5706    51.2510 </r>
       <r>     0.3720    11.8463    52.5400 </r>
       <r>     0.5552     6.2317    54.0581 </r>
       <r>     0.7385     4.9282    55.9762 </r>
       <r>     0.9217    14.3433    57.8858 </r>
       <r>     1.1050    12.9881    60.7297 </r>
       <r>     1.2882     7.3477    63.1088 </r>
       <r>     1.4714     6.6352    64.3873 </r>
       <r>     1.6547    14.2311    67.6503 </r>
       <r>     1.8379    21.9439    70.5155 </r>
       <r>     2.0212    28.6192    74.1764 </r>
       <r>     2.2044     0.0953    75.9999 </r>
       <r>     2.3877     0.0000    76.0000 </r>
       <r>     2.5709     0.0000    76.0000 </r>
       <r>     2.7541     0.0000    76.0000 </r>
       <r>     2.9374     0.0000    76.0000 </r>
       <r>     3.1206     0.0000    76.0000 </r>
       <r>     3.3039     0.0000    76.0000 </r>
       <r>     3.4871     0.0000    76.0000 </r>
       <r>     3.6704     0.0000    76.0000 </r>
       <r>     3.8536     0.0000    76.0000 </r>
       <r>     4.0368     0.0000    76.0000 </r>
       <r>     4.2201     0.0000    76.0000 </r>
       <r>     4.4033     0.0000    76.0000 </r>
       <r>     4.5866     0.0000    76.0000 </r>
       <r>     4.7698     0.0000    76.0000 </r>
       <r>     4.9530     0.0000    76.0000 </r>
       <r>     5.1363     2.7926    76.2101 </r>
       <r>     5.3195     4.8533    76.8784 </r>
       <r>     5.5028     5.7973    77.8589 </r>
       <r>     5.6860     4.6722    78.7876 </r>
       <r>     5.8693     3.4983    79.5654 </r>
       <r>     6.0525     0.5707    79.9995 </r>
       <r>     6.2357     2.3952    80.2378 </r>
       <r>     6.4190    11.5321    81.2968 </r>
       <r>     6.6022     1.1814    84.0771 </r>
       <r>     6.7855    16.3888    85.8290 </r>
       <r>     6.9687     5.3765    88.1271 </r>
       <r>     7.1520    11.8126    90.3775 </r>
       <r>     7.3352     0.0000    92.0000 </r>
       <r>     7.5184     0.0000    92.0000 </r>
       <r>     7.7017     0.0000    92.0000 </r>
       <r>     7.8849     0.0000    92.0000 </r>
       <r>     8.0682     1.8269    92.0591 </r>
       <r>     8.2514     6.9097    93.7669 </r>
       <r>     8.4347     1.1998    94.1440 </r>
       <r>     8.6179     1.6628    95.9531 </r>
       <r>     8.8011     0.0000    96.0000 </r>
       <r>     8.9844     0.0000    96.0000 </r>
       <r>     9.1676     0.0000    96.0000 </r>
       <r>     9.3509     0.0000    96.0000 </r>
       <r>     9.5341     0.0000    96.0000 </r>
       <r>     9.7174     0.0000    96.0000 </r>
       <r>     9.9006     0.0000    96.0000 </r>
       <r>    10.0838     0.0000    96.0000 </r>
       <r>    10.2671     0.0000    96.0000 </r>
       <r>    10.4503     0.0000    96.0000 </r>
       <r>    10.6336     0.0000    96.0000 </r>
       <r>    10.8168     0.0000    96.0000 </r>
       <r>    11.0001     0.0000    96.0000 </r>
       <r>    11.1833     0.0000    96.0000 </r>
      </set>
     </set>
    </array>
   </total>
  </dos>
 </calculation>
 <structure name="finalpos" >
  <crystal>
   <varray name="basis" >
    <v>       7.58022417       0.00000000       0.00000000 </v>
    <v>       0.00000000       6.33347261       0.00000000 </v>
    <v>       0.00000000       0.00000000       6.01079077 </v>
   </varray>
   <i name="volume">    288.57290863 </i>
   <varray name="rec_basis" >
    <v>       0.13192222       0.00000000       0.00000000 </v>
    <v>       0.00000000       0.15789126       0.00000000 </v>
    <v>       0.00000000       0.00000000       0.16636746 </v>
   </varray>
  </crystal>
  <varray name="positions" >
   <v>       0.00000000       0.31931485       0.30030685 </v>
   <v>       0.50000000       0.68068515       0.80030685 </v>
   <v>       0.22019414       0.17849478       0.17565329 </v>
   <v>       0.27980586       0.82150522       0.67565329 </v>
   <v>       0.72019414       0.82150522       0.67565329 </v>
   <v>       0.77980586       0.17849478       0.17565329 </v>
   <v>       0.00000000       0.62967333       0.21368043 </v>
   <v>       0.50000000       0.37032667       0.71368043 </v>
   <v>       0.00000000       0.28389685       0.63741001 </v>
   <v>       0.50000000       0.71610315       0.13741001 </v>
   <v>       0.00000000       0.65738737       0.78742158 </v>
   <v>       0.50000000       0.34261263       0.28742158 </v>
   <v>       0.25591002       0.18655172       0.80123299 </v>
   <v>       0.24408998       0.81344828       0.30123299 </v>
   <v>       0.75591002       0.81344828       0.30123299 </v>
   <v>       0.74408998       0.18655172       0.80123299 </v>
  </varray>
 </structure>
</modeling>
