unknown system                          
           1
     7.580224    0.000000    0.000000
     0.000000    6.333473    0.000000
     0.000000    0.000000    6.010791
   P    S    Li
   2   8   6
Direct configuration=     1
   0.00000000  0.31931485  0.30030685
   0.50000000  0.68068515  0.80030685
   0.22019414  0.17849478  0.17565329
   0.27980586  0.82150522  0.67565329
   0.72019414  0.82150522  0.67565329
   0.77980586  0.17849478  0.17565329
   0.00000000  0.62967333  0.21368043
   0.50000000  0.37032667  0.71368043
   0.00000000  0.28389685  0.63741001
   0.50000000  0.71610315  0.13741001
   0.00000000  0.65738737  0.78742158
   0.50000000  0.34261263  0.28742158
   0.25591002  0.18655172  0.80123299
   0.24408998  0.81344828  0.30123299
   0.75591002  0.81344828  0.30123299
   0.74408998  0.18655172  0.80123299
