  16  16   0   0
  0.2083333E+02  0.6933613E-09  0.6933613E-09  0.6933613E-09  0.5000000E-15
  1.000000000000000E-004
  CAR 
 unknown system                          
     11.58281584    -43.67891110  301      3.15540248      1.00000000
    -43.679  0.0000E+00  0.0000E+00
    -43.495  0.0000E+00  0.0000E+00
    -43.310  0.0000E+00  0.0000E+00
    -43.126  0.0000E+00  0.0000E+00
    -42.942  0.0000E+00  0.0000E+00
    -42.758  0.0000E+00  0.0000E+00
    -42.574  0.0000E+00  0.0000E+00
    -42.389  0.0000E+00  0.0000E+00
    -42.205  0.0000E+00  0.0000E+00
    -42.021  0.0000E+00  0.0000E+00
    -41.837  0.0000E+00  0.0000E+00
    -41.653  0.0000E+00  0.0000E+00
    -41.468  0.0000E+00  0.0000E+00
    -41.284  0.0000E+00  0.0000E+00
    -41.100  0.0000E+00  0.4000E-01
    -40.916  0.0000E+00  0.4000E-01
    -40.732  0.0000E+00  0.1200E+00
    -40.547  0.0000E+00  0.1200E+00
    -40.363  0.0000E+00  0.1200E+00
    -40.179  0.0000E+00  0.1200E+00
    -39.995  0.0000E+00  0.1200E+00
    -39.811  0.0000E+00  0.1200E+00
    -39.626  0.0000E+00  0.1200E+00
    -39.442  0.0000E+00  0.1200E+00
    -39.258  0.0000E+00  0.1200E+00
    -39.074  0.0000E+00  0.1200E+00
    -38.890  0.0000E+00  0.1200E+00
    -38.705  0.0000E+00  0.1200E+00
    -38.521  0.0000E+00  0.1200E+00
    -38.337  0.0000E+00  0.1200E+00
    -38.153  0.0000E+00  0.1200E+00
    -37.969  0.0000E+00  0.1200E+00
    -37.784  0.0000E+00  0.1200E+00
    -37.600  0.0000E+00  0.1200E+00
    -37.416  0.0000E+00  0.1200E+00
    -37.232  0.0000E+00  0.1200E+00
    -37.048  0.0000E+00  0.1200E+00
    -36.863  0.0000E+00  0.1200E+00
    -36.679  0.0000E+00  0.1200E+00
    -36.495  0.0000E+00  0.1200E+00
    -36.311  0.0000E+00  0.1200E+00
    -36.126  0.0000E+00  0.1200E+00
    -35.942  0.0000E+00  0.1200E+00
    -35.758  0.0000E+00  0.1200E+00
    -35.574  0.0000E+00  0.1200E+00
    -35.390  0.0000E+00  0.1200E+00
    -35.205  0.0000E+00  0.1200E+00
    -35.021  0.0000E+00  0.1200E+00
    -34.837  0.0000E+00  0.1200E+00
    -34.653  0.0000E+00  0.1200E+00
    -34.469  0.0000E+00  0.1200E+00
    -34.284  0.0000E+00  0.1200E+00
    -34.100  0.0000E+00  0.1200E+00
    -33.916  0.0000E+00  0.1200E+00
    -33.732  0.0000E+00  0.1200E+00
    -33.548  0.0000E+00  0.1200E+00
    -33.363  0.0000E+00  0.1200E+00
    -33.179  0.0000E+00  0.1200E+00
    -32.995  0.0000E+00  0.1200E+00
    -32.811  0.0000E+00  0.1200E+00
    -32.627  0.0000E+00  0.1200E+00
    -32.442  0.0000E+00  0.1200E+00
    -32.258  0.0000E+00  0.1200E+00
    -32.074  0.0000E+00  0.1200E+00
    -31.890  0.0000E+00  0.1200E+00
    -31.706  0.0000E+00  0.1200E+00
    -31.521  0.0000E+00  0.1200E+00
    -31.337  0.0000E+00  0.1200E+00
    -31.153  0.0000E+00  0.1200E+00
    -30.969  0.0000E+00  0.1200E+00
    -30.785  0.0000E+00  0.1200E+00
    -30.600  0.0000E+00  0.1200E+00
    -30.416  0.0000E+00  0.1200E+00
    -30.232  0.0000E+00  0.1200E+00
    -30.048  0.0000E+00  0.1200E+00
    -29.863  0.0000E+00  0.1200E+00
    -29.679  0.0000E+00  0.1200E+00
    -29.495  0.0000E+00  0.1200E+00
    -29.311  0.0000E+00  0.1200E+00
    -29.127  0.0000E+00  0.1200E+00
    -28.942  0.0000E+00  0.1200E+00
    -28.758  0.0000E+00  0.1200E+00
    -28.574  0.0000E+00  0.1200E+00
    -28.390  0.0000E+00  0.1200E+00
    -28.206  0.0000E+00  0.1200E+00
    -28.021  0.0000E+00  0.1200E+00
    -27.837  0.0000E+00  0.1200E+00
    -27.653  0.0000E+00  0.1200E+00
    -27.469  0.0000E+00  0.1200E+00
    -27.285  0.0000E+00  0.1200E+00
    -27.100  0.0000E+00  0.1200E+00
    -26.916  0.0000E+00  0.1200E+00
    -26.732  0.0000E+00  0.1200E+00
    -26.548  0.0000E+00  0.1200E+00
    -26.364  0.0000E+00  0.1200E+00
    -26.179  0.0000E+00  0.1200E+00
    -25.995  0.0000E+00  0.1200E+00
    -25.811  0.0000E+00  0.1200E+00
    -25.627  0.0000E+00  0.1200E+00
    -25.443  0.0000E+00  0.1200E+00
    -25.258  0.0000E+00  0.1200E+00
    -25.074  0.0000E+00  0.1200E+00
    -24.890  0.0000E+00  0.1200E+00
    -24.706  0.0000E+00  0.1200E+00
    -24.522  0.0000E+00  0.1200E+00
    -24.337  0.0000E+00  0.1200E+00
    -24.153  0.0000E+00  0.1200E+00
    -23.969  0.0000E+00  0.1200E+00
    -23.785  0.0000E+00  0.1200E+00
    -23.600  0.0000E+00  0.1200E+00
    -23.416  0.0000E+00  0.1200E+00
    -23.232  0.0000E+00  0.1200E+00
    -23.048  0.0000E+00  0.1200E+00
    -22.864  0.0000E+00  0.1200E+00
    -22.679  0.0000E+00  0.1200E+00
    -22.495  0.0000E+00  0.1200E+00
    -22.311  0.0000E+00  0.1200E+00
    -22.127  0.0000E+00  0.1200E+00
    -21.943  0.0000E+00  0.1200E+00
    -21.758  0.0000E+00  0.1200E+00
    -21.574  0.0000E+00  0.1200E+00
    -21.390  0.0000E+00  0.1200E+00
    -21.206  0.0000E+00  0.1200E+00
    -21.022  0.0000E+00  0.1200E+00
    -20.837  0.0000E+00  0.1200E+00
    -20.653  0.0000E+00  0.1200E+00
    -20.469  0.0000E+00  0.1200E+00
    -20.285  0.0000E+00  0.1200E+00
    -20.101  0.0000E+00  0.1200E+00
    -19.916  0.0000E+00  0.1200E+00
    -19.732  0.0000E+00  0.1200E+00
    -19.548  0.0000E+00  0.1200E+00
    -19.364  0.0000E+00  0.1200E+00
    -19.180  0.0000E+00  0.1200E+00
    -18.995  0.0000E+00  0.1200E+00
    -18.811  0.0000E+00  0.1200E+00
    -18.627  0.0000E+00  0.1200E+00
    -18.443  0.0000E+00  0.1200E+00
    -18.259  0.0000E+00  0.1200E+00
    -18.074  0.0000E+00  0.1200E+00
    -17.890  0.0000E+00  0.1200E+00
    -17.706  0.0000E+00  0.1200E+00
    -17.522  0.0000E+00  0.1200E+00
    -17.337  0.0000E+00  0.1200E+00
    -17.153  0.0000E+00  0.1200E+00
    -16.969  0.0000E+00  0.1200E+00
    -16.785  0.0000E+00  0.1200E+00
    -16.601  0.0000E+00  0.1200E+00
    -16.416  0.0000E+00  0.1200E+00
    -16.232  0.0000E+00  0.1200E+00
    -16.048  0.0000E+00  0.1200E+00
    -15.864  0.0000E+00  0.1200E+00
    -15.680  0.0000E+00  0.1200E+00
    -15.495  0.0000E+00  0.1200E+00
    -15.311  0.0000E+00  0.1200E+00
    -15.127  0.0000E+00  0.1200E+00
    -14.943  0.0000E+00  0.1200E+00
    -14.759  0.0000E+00  0.1200E+00
    -14.574  0.0000E+00  0.1200E+00
    -14.390  0.0000E+00  0.1200E+00
    -14.206  0.0000E+00  0.1200E+00
    -14.022  0.0000E+00  0.1200E+00
    -13.838  0.0000E+00  0.1200E+00
    -13.653  0.0000E+00  0.1200E+00
    -13.469  0.0000E+00  0.1200E+00
    -13.285  0.0000E+00  0.1200E+00
    -13.101  0.0000E+00  0.1200E+00
    -12.917  0.0000E+00  0.1200E+00
    -12.732  0.0000E+00  0.1200E+00
    -12.548  0.0000E+00  0.1200E+00
    -12.364  0.0000E+00  0.1200E+00
    -12.180  0.2117E+00  0.1321E+00
    -11.996  0.0000E+00  0.1600E+00
    -11.811  0.0000E+00  0.1600E+00
    -11.627  0.0000E+00  0.1600E+00
    -11.443  0.0000E+00  0.1600E+00
    -11.259  0.0000E+00  0.1600E+00
    -11.074  0.0000E+00  0.1600E+00
    -10.890  0.0000E+00  0.1600E+00
    -10.706  0.0000E+00  0.1600E+00
    -10.522  0.0000E+00  0.1600E+00
    -10.338  0.0000E+00  0.1600E+00
    -10.153  0.0000E+00  0.1600E+00
     -9.969  0.0000E+00  0.1600E+00
     -9.785  0.0000E+00  0.1600E+00
     -9.601  0.0000E+00  0.1600E+00
     -9.417  0.0000E+00  0.1600E+00
     -9.232  0.6930E-01  0.1930E+00
     -9.048  0.1837E+00  0.2121E+00
     -8.864  0.4648E-01  0.2409E+00
     -8.680  0.2197E+00  0.2699E+00
     -8.496  0.0000E+00  0.2800E+00
     -8.311  0.0000E+00  0.2800E+00
     -8.127  0.0000E+00  0.2800E+00
     -7.943  0.0000E+00  0.2800E+00
     -7.759  0.0000E+00  0.2800E+00
     -7.575  0.0000E+00  0.2800E+00
     -7.390  0.0000E+00  0.2800E+00
     -7.206  0.0000E+00  0.2800E+00
     -7.022  0.0000E+00  0.2800E+00
     -6.838  0.0000E+00  0.2800E+00
     -6.654  0.0000E+00  0.2800E+00
     -6.469  0.0000E+00  0.2800E+00
     -6.285  0.0000E+00  0.2800E+00
     -6.101  0.0000E+00  0.2800E+00
     -5.917  0.0000E+00  0.2800E+00
     -5.733  0.0000E+00  0.2800E+00
     -5.548  0.0000E+00  0.2800E+00
     -5.364  0.0000E+00  0.2800E+00
     -5.180  0.0000E+00  0.2800E+00
     -4.996  0.1615E-01  0.2817E+00
     -4.811  0.4637E-01  0.2876E+00
     -4.627  0.3221E-01  0.2969E+00
     -4.443  0.2410E-01  0.3195E+00
     -4.259  0.0000E+00  0.3200E+00
     -4.075  0.0000E+00  0.3200E+00
     -3.890  0.0000E+00  0.3200E+00
     -3.706  0.0000E+00  0.3200E+00
     -3.522  0.0000E+00  0.3200E+00
     -3.338  0.0000E+00  0.3200E+00
     -3.154  0.0000E+00  0.3200E+00
     -2.969  0.0000E+00  0.3200E+00
     -2.785  0.0000E+00  0.3200E+00
     -2.601  0.0000E+00  0.3200E+00
     -2.417  0.0000E+00  0.3200E+00
     -2.233  0.6085E-01  0.3234E+00
     -2.048  0.1780E+00  0.3458E+00
     -1.864  0.1581E+00  0.3826E+00
     -1.680  0.5992E-01  0.4050E+00
     -1.496  0.8670E-01  0.4242E+00
     -1.312  0.0000E+00  0.4400E+00
     -1.127  0.0000E+00  0.4400E+00
     -0.943  0.0000E+00  0.4400E+00
     -0.759  0.0000E+00  0.4400E+00
     -0.575  0.0000E+00  0.4400E+00
     -0.391  0.0000E+00  0.4400E+00
     -0.206  0.0000E+00  0.4400E+00
     -0.022  0.0000E+00  0.4400E+00
      0.162  0.1504E+00  0.4532E+00
      0.346  0.1042E+00  0.4785E+00
      0.530  0.8821E-01  0.5074E+00
      0.715  0.0000E+00  0.5200E+00
      0.899  0.1241E+00  0.5375E+00
      1.083  0.5762E-01  0.5565E+00
      1.267  0.6697E-01  0.5642E+00
      1.451  0.1639E+00  0.5913E+00
      1.636  0.1152E+00  0.6122E+00
      1.820  0.5905E-01  0.6330E+00
      2.004  0.1334E+00  0.6526E+00
      2.188  0.2866E-01  0.6795E+00
      2.373  0.8324E-01  0.6911E+00
      2.557  0.1563E+00  0.7121E+00
      2.741  0.1907E+00  0.7364E+00
      2.925  0.4046E-01  0.7565E+00
      3.109  0.0000E+00  0.7600E+00
      3.294  0.0000E+00  0.7600E+00
      3.478  0.0000E+00  0.7600E+00
      3.662  0.0000E+00  0.7600E+00
      3.846  0.0000E+00  0.7600E+00
      4.030  0.0000E+00  0.7600E+00
      4.215  0.0000E+00  0.7600E+00
      4.399  0.0000E+00  0.7600E+00
      4.583  0.0000E+00  0.7600E+00
      4.767  0.0000E+00  0.7600E+00
      4.951  0.0000E+00  0.7600E+00
      5.136  0.0000E+00  0.7600E+00
      5.320  0.0000E+00  0.7600E+00
      5.504  0.0000E+00  0.7600E+00
      5.688  0.0000E+00  0.7600E+00
      5.872  0.4445E-01  0.7664E+00
      6.057  0.6229E-01  0.7803E+00
      6.241  0.7198E-01  0.7937E+00
      6.425  0.1108E-01  0.7984E+00
      6.609  0.3273E-01  0.8020E+00
      6.793  0.1556E+00  0.8253E+00
      6.978  0.1184E-01  0.8395E+00
      7.162  0.1146E+00  0.8585E+00
      7.346  0.6785E-01  0.8796E+00
      7.530  0.8334E-01  0.9054E+00
      7.714  0.0000E+00  0.9200E+00
      7.899  0.0000E+00  0.9200E+00
      8.083  0.0000E+00  0.9200E+00
      8.267  0.0000E+00  0.9200E+00
      8.451  0.3725E-01  0.9253E+00
      8.636  0.6351E-01  0.9359E+00
      8.820  0.3057E-01  0.9503E+00
      9.004  0.2589E-01  0.9584E+00
      9.188  0.0000E+00  0.9600E+00
      9.372  0.0000E+00  0.9600E+00
      9.557  0.0000E+00  0.9600E+00
      9.741  0.0000E+00  0.9600E+00
      9.925  0.0000E+00  0.9600E+00
     10.109  0.0000E+00  0.9600E+00
     10.293  0.0000E+00  0.9600E+00
     10.478  0.0000E+00  0.9600E+00
     10.662  0.0000E+00  0.9600E+00
     10.846  0.0000E+00  0.9600E+00
     11.030  0.0000E+00  0.9600E+00
     11.214  0.0000E+00  0.9600E+00
     11.399  0.0000E+00  0.9600E+00
     11.583  0.0000E+00  0.9600E+00
