       N       E                     dE             d eps       ncg     rms          rms(c)
DAV:   1     0.561245264320E+03    0.56125E+03   -0.28159E+04   768   0.127E+03
DAV:   2     0.239960399720E+02   -0.53725E+03   -0.51307E+03   904   0.306E+02
DAV:   3    -0.531430886199E+02   -0.77139E+02   -0.75177E+02  1096   0.105E+02
DAV:   4    -0.630136250308E+02   -0.98705E+01   -0.97233E+01  1416   0.362E+01
DAV:   5    -0.645360844407E+02   -0.15225E+01   -0.15209E+01  1216   0.997E+00    0.468E+01
RMM:   6    -0.605186803921E+02    0.40174E+01   -0.81029E+00   811   0.736E+00    0.271E+01
RMM:   7    -0.597632754336E+02    0.75540E+00   -0.68654E+00   843   0.632E+00    0.392E+00
RMM:   8    -0.595872205204E+02    0.17605E+00   -0.44928E-01   949   0.213E+00    0.772E-01
RMM:   9    -0.595837942089E+02    0.34263E-02   -0.91025E-02  1033   0.821E-01    0.421E-01
RMM:  10    -0.595861422864E+02   -0.23481E-02   -0.27850E-02  1127   0.387E-01    0.148E-01
RMM:  11    -0.595877001590E+02   -0.15579E-02   -0.12667E-02  1096   0.272E-01    0.534E-02
RMM:  12    -0.595883571578E+02   -0.65700E-03   -0.75403E-03  1069   0.182E-01    0.488E-02
RMM:  13    -0.595887631092E+02   -0.40595E-03   -0.40661E-03   991   0.134E-01    0.164E-02
RMM:  14    -0.595890150707E+02   -0.25196E-03   -0.26371E-03   805   0.102E-01    0.216E-02
RMM:  15    -0.595891358482E+02   -0.12078E-03   -0.13193E-03   856   0.812E-02    0.851E-03
RMM:  16    -0.595892230650E+02   -0.87217E-04   -0.94919E-04   756   0.666E-02    0.927E-03
RMM:  17    -0.595892673136E+02   -0.44249E-04   -0.48130E-04   691   0.552E-02    0.462E-03
RMM:  18    -0.595892960665E+02   -0.28753E-04   -0.32947E-04   692   0.493E-02    0.318E-03
RMM:  19    -0.595893128748E+02   -0.16808E-04   -0.19779E-04   612   0.442E-02
   1 F= -.59589313E+02 E0= -.59589313E+02  d E =-.595893E+02
       N       E                     dE             d eps       ncg     rms          rms(c)
DAV:   1    -0.814456989196E+02   -0.21856E+02   -0.80601E+02   832   0.120E+02    0.297E+01
RMM:   2    -0.709762062984E+02    0.10469E+02   -0.76194E+01  1031   0.332E+01    0.211E+01
RMM:   3    -0.676413218708E+02    0.33349E+01   -0.32037E+01  1048   0.171E+01    0.101E+01
RMM:   4    -0.676087038290E+02    0.32618E-01   -0.56281E+00  1186   0.761E+00    0.374E+00
RMM:   5    -0.675967724586E+02    0.11931E-01   -0.12009E+00  1252   0.417E+00    0.103E+00
RMM:   6    -0.676059378213E+02   -0.91654E-02   -0.30958E-01  1232   0.242E+00    0.561E-01
RMM:   7    -0.676239858659E+02   -0.18048E-01   -0.18731E-01  1308   0.178E+00    0.281E-01
RMM:   8    -0.676327071988E+02   -0.87213E-02   -0.92475E-02  1270   0.129E+00    0.107E-01
RMM:   9    -0.676395959844E+02   -0.68888E-02   -0.68732E-02  1273   0.100E+00    0.560E-02
RMM:  10    -0.676431544198E+02   -0.35584E-02   -0.35521E-02  1267   0.783E-01    0.370E-02
RMM:  11    -0.676457134887E+02   -0.25591E-02   -0.26638E-02  1238   0.649E-01    0.209E-02
RMM:  12    -0.676474557281E+02   -0.17422E-02   -0.18166E-02  1225   0.539E-01    0.176E-02
RMM:  13    -0.676485808535E+02   -0.11251E-02   -0.11849E-02  1224   0.442E-01    0.107E-02
RMM:  14    -0.676494398548E+02   -0.85900E-03   -0.90419E-03  1211   0.374E-01    0.158E-02
RMM:  15    -0.676499965173E+02   -0.55666E-03   -0.59121E-03  1207   0.310E-01    0.173E-02
RMM:  16    -0.676504278745E+02   -0.43136E-03   -0.45985E-03  1177   0.265E-01    0.351E-02
RMM:  17    -0.676507146200E+02   -0.28675E-03   -0.31451E-03  1172   0.225E-01    0.208E-02
RMM:  18    -0.676509583732E+02   -0.24375E-03   -0.26403E-03  1166   0.194E-01    0.158E-02
RMM:  19    -0.676511127688E+02   -0.15440E-03   -0.16817E-03  1039   0.162E-01    0.154E-02
RMM:  20    -0.676512400186E+02   -0.12725E-03   -0.14015E-03  1029   0.143E-01    0.151E-02
RMM:  21    -0.676513269396E+02   -0.86921E-04   -0.97189E-04   952   0.126E-01    0.167E-02
RMM:  22    -0.676513939225E+02   -0.66983E-04   -0.76563E-04   883   0.114E-01    0.162E-02
RMM:  23    -0.676514426742E+02   -0.48752E-04   -0.57127E-04   832   0.104E-01    0.188E-02
RMM:  24    -0.676514812466E+02   -0.38572E-04   -0.46751E-04   848   0.981E-02    0.764E-03
RMM:  25    -0.676515153170E+02   -0.34070E-04   -0.41116E-04   899   0.925E-02    0.619E-03
RMM:  26    -0.676515378837E+02   -0.22567E-04   -0.29991E-04   761   0.871E-02    0.131E-02
RMM:  27    -0.676515622166E+02   -0.24333E-04   -0.31019E-04   914   0.836E-02    0.167E-02
RMM:  28    -0.676515754762E+02   -0.13260E-04   -0.18504E-04   682   0.776E-02
   2 F= -.67651575E+02 E0= -.67651575E+02  d E =-.806226E+01
       N       E                     dE             d eps       ncg     rms          rms(c)
DAV:   1    -0.676577453684E+02   -0.61832E-02   -0.25785E-01   952   0.217E+00    0.638E-01
RMM:   2    -0.676537532045E+02    0.39922E-02   -0.17411E-02  1007   0.508E-01    0.246E-01
RMM:   3    -0.676527402291E+02    0.10130E-02   -0.56875E-03  1056   0.235E-01    0.889E-02
RMM:   4    -0.676527072336E+02    0.32996E-04   -0.76624E-04  1094   0.928E-02    0.548E-02
RMM:   5    -0.676527083822E+02   -0.11485E-05   -0.24597E-04  1040   0.578E-02    0.170E-02
RMM:   6    -0.676527005013E+02    0.78809E-05   -0.11784E-05   606   0.390E-02
   3 F= -.67652701E+02 E0= -.67652701E+02  d E =-.806339E+01
       N       E                     dE             d eps       ncg     rms          rms(c)
DAV:   1    -0.699442665986E+02   -0.22916E+01   -0.21496E+02   768   0.618E+01    0.161E+01
RMM:   2    -0.705572259901E+02   -0.61296E+00   -0.16708E+01   945   0.159E+01    0.451E+00
RMM:   3    -0.701294071792E+02    0.42782E+00   -0.14049E+00  1178   0.439E+00    0.355E+00
RMM:   4    -0.700088915057E+02    0.12052E+00   -0.63376E-01   992   0.237E+00    0.101E+00
RMM:   5    -0.700091759306E+02   -0.28442E-03   -0.13599E-01  1208   0.117E+00    0.471E-01
RMM:   6    -0.700093507256E+02   -0.17480E-03   -0.68784E-02  1129   0.712E-01    0.164E-01
RMM:   7    -0.700101810615E+02   -0.83034E-03   -0.24129E-02  1179   0.471E-01    0.997E-02
RMM:   8    -0.700109218989E+02   -0.74084E-03   -0.11704E-02  1154   0.342E-01    0.327E-02
RMM:   9    -0.700116683568E+02   -0.74646E-03   -0.81586E-03  1117   0.253E-01    0.260E-02
RMM:  10    -0.700120117618E+02   -0.34340E-03   -0.37336E-03  1094   0.186E-01    0.132E-02
RMM:  11    -0.700122164284E+02   -0.20467E-03   -0.21516E-03  1013   0.142E-01    0.982E-03
RMM:  12    -0.700123396768E+02   -0.12325E-03   -0.12890E-03  1035   0.113E-01    0.238E-03
RMM:  13    -0.700124136476E+02   -0.73971E-04   -0.78583E-04   916   0.893E-02    0.297E-03
RMM:  14    -0.700124534528E+02   -0.39805E-04   -0.42909E-04   817   0.734E-02    0.220E-03
RMM:  15    -0.700124766647E+02   -0.23212E-04   -0.26898E-04   774   0.643E-02    0.183E-03
RMM:  16    -0.700124890693E+02   -0.12405E-04   -0.15441E-04   696   0.573E-02
   4 F= -.70012489E+02 E0= -.70012489E+02  d E =-.235979E+01
       N       E                     dE             d eps       ncg     rms          rms(c)
DAV:   1    -0.703451391086E+02   -0.33266E+00   -0.37960E+01   784   0.256E+01    0.591E+00
RMM:   2    -0.704009039876E+02   -0.55765E-01   -0.25074E+00   953   0.651E+00    0.162E+00
RMM:   3    -0.703212546526E+02    0.79649E-01   -0.24370E-01  1138   0.186E+00    0.956E-01
RMM:   4    -0.703043683453E+02    0.16886E-01   -0.98304E-02  1009   0.938E-01    0.331E-01
RMM:   5    -0.703044072054E+02   -0.38860E-04   -0.26019E-02  1203   0.516E-01    0.160E-01
RMM:   6    -0.703048633072E+02   -0.45610E-03   -0.94744E-03  1182   0.299E-01    0.712E-02
RMM:   7    -0.703052067393E+02   -0.34343E-03   -0.43609E-03  1162   0.211E-01    0.347E-02
RMM:   8    -0.703053775439E+02   -0.17080E-03   -0.22762E-03  1150   0.156E-01    0.142E-02
RMM:   9    -0.703055004096E+02   -0.12287E-03   -0.13801E-03  1021   0.116E-01    0.101E-02
RMM:  10    -0.703055645140E+02   -0.64104E-04   -0.67623E-04  1014   0.882E-02    0.605E-03
RMM:  11    -0.703055915376E+02   -0.27024E-04   -0.29470E-04   843   0.672E-02    0.298E-03
RMM:  12    -0.703056034031E+02   -0.11866E-04   -0.14590E-04   712   0.579E-02
   5 F= -.70305603E+02 E0= -.70305603E+02  d E =-.265290E+01
       N       E                     dE             d eps       ncg     rms          rms(c)
DAV:   1    -0.703495787527E+02   -0.43987E-01   -0.10263E+02   768   0.448E+01    0.972E+00
RMM:   2    -0.708870591872E+02   -0.53748E+00   -0.66255E+00   961   0.106E+01    0.230E+00
RMM:   3    -0.708398658452E+02    0.47193E-01   -0.84812E-01  1237   0.365E+00    0.236E+00
RMM:   4    -0.708210996399E+02    0.18766E-01   -0.31740E-01  1116   0.182E+00    0.666E-01
RMM:   5    -0.708269600342E+02   -0.58604E-02   -0.96336E-02  1297   0.105E+00    0.260E-01
RMM:   6    -0.708298430469E+02   -0.28830E-02   -0.49058E-02  1173   0.696E-01    0.845E-02
RMM:   7    -0.708313689560E+02   -0.15259E-02   -0.22463E-02  1239   0.479E-01    0.728E-02
RMM:   8    -0.708322656428E+02   -0.89669E-03   -0.11194E-02  1198   0.338E-01    0.190E-02
RMM:   9    -0.708328908007E+02   -0.62516E-03   -0.65990E-03  1157   0.243E-01    0.156E-02
RMM:  10    -0.708331883212E+02   -0.29752E-03   -0.29855E-03  1090   0.168E-01    0.943E-03
RMM:  11    -0.708333318672E+02   -0.14355E-03   -0.14711E-03   977   0.120E-01    0.767E-03
RMM:  12    -0.708334024427E+02   -0.70575E-04   -0.76629E-04   967   0.930E-02    0.397E-03
RMM:  13    -0.708334407397E+02   -0.38297E-04   -0.42197E-04   873   0.736E-02    0.313E-03
RMM:  14    -0.708334562731E+02   -0.15533E-04   -0.18348E-04   742   0.614E-02
   6 F= -.70833456E+02 E0= -.70833456E+02  d E =-.527853E+00
       N       E                     dE             d eps       ncg     rms          rms(c)
DAV:   1    -0.708332583620E+02    0.18238E-03   -0.17011E+00   984   0.573E+00    0.902E-01
RMM:   2    -0.708412047052E+02   -0.79463E-02   -0.98006E-02   963   0.131E+00    0.226E-01
RMM:   3    -0.708403823255E+02    0.82238E-03   -0.11569E-02  1236   0.446E-01    0.204E-01
RMM:   4    -0.708402259006E+02    0.15642E-03   -0.48772E-03  1125   0.212E-01    0.784E-02
RMM:   5    -0.708403431899E+02   -0.11729E-03   -0.18480E-03  1179   0.137E-01    0.344E-02
RMM:   6    -0.708404185725E+02   -0.75383E-04   -0.91756E-04  1081   0.933E-02    0.835E-03
RMM:   7    -0.708404439261E+02   -0.25354E-04   -0.28815E-04   857   0.638E-02    0.505E-03
RMM:   8    -0.708404493718E+02   -0.54456E-05   -0.84968E-05   688   0.523E-02
   7 F= -.70840449E+02 E0= -.70840449E+02  d E =-.534846E+00
       N       E                     dE             d eps       ncg     rms          rms(c)
DAV:   1    -0.710663588201E+02   -0.22591E+00   -0.57873E+01   768   0.341E+01    0.446E+00
RMM:   2    -0.712726786787E+02   -0.20632E+00   -0.28814E+00  1002   0.747E+00    0.169E+00
RMM:   3    -0.712700807193E+02    0.25980E-02   -0.41639E-01  1232   0.261E+00    0.158E+00
RMM:   4    -0.712593448328E+02    0.10736E-01   -0.17362E-01  1135   0.136E+00    0.451E-01
RMM:   5    -0.712633750396E+02   -0.40302E-02   -0.58936E-02  1280   0.804E-01    0.169E-01
RMM:   6    -0.712647576091E+02   -0.13826E-02   -0.29438E-02  1190   0.539E-01    0.784E-02
RMM:   7    -0.712655055148E+02   -0.74791E-03   -0.12387E-02  1245   0.357E-01    0.419E-02
RMM:   8    -0.712659833139E+02   -0.47780E-03   -0.58261E-03  1202   0.248E-01    0.141E-02
RMM:   9    -0.712662609456E+02   -0.27763E-03   -0.29742E-03  1199   0.173E-01    0.951E-03
RMM:  10    -0.712663914892E+02   -0.13054E-03   -0.13524E-03  1074   0.120E-01    0.509E-03
RMM:  11    -0.712664494281E+02   -0.57939E-04   -0.60955E-04   961   0.870E-02    0.408E-03
RMM:  12    -0.712664698352E+02   -0.20407E-04   -0.24186E-04   801   0.680E-02    0.197E-03
RMM:  13    -0.712664774720E+02   -0.76368E-05   -0.11419E-04   694   0.600E-02
   8 F= -.71266477E+02 E0= -.71266477E+02  d E =-.426028E+00
       N       E                     dE             d eps       ncg     rms          rms(c)
DAV:   1    -0.708979072309E+02    0.36856E+00   -0.14893E+02   768   0.546E+01    0.875E+00
RMM:   2    -0.715273287538E+02   -0.62942E+00   -0.84650E+00   982   0.123E+01    0.297E+00
RMM:   3    -0.715102149442E+02    0.17114E-01   -0.13594E+00  1233   0.443E+00    0.306E+00
RMM:   4    -0.714815749573E+02    0.28640E-01   -0.41395E-01  1133   0.217E+00    0.101E+00
RMM:   5    -0.714908621582E+02   -0.92872E-02   -0.14986E-01  1270   0.126E+00    0.285E-01
RMM:   6    -0.714929520047E+02   -0.20898E-02   -0.60286E-02  1189   0.774E-01    0.107E-01
RMM:   7    -0.714943749556E+02   -0.14230E-02   -0.22352E-02  1251   0.471E-01    0.629E-02
RMM:   8    -0.714951557733E+02   -0.78082E-03   -0.90494E-03  1261   0.305E-01    0.303E-02
RMM:   9    -0.714954811432E+02   -0.32537E-03   -0.38314E-03  1217   0.193E-01    0.118E-02
RMM:  10    -0.714956269975E+02   -0.14585E-03   -0.15626E-03  1201   0.124E-01    0.621E-03
RMM:  11    -0.714956719127E+02   -0.44915E-04   -0.47329E-04   911   0.785E-02    0.403E-03
RMM:  12    -0.714956795813E+02   -0.76686E-05   -0.11375E-04   689   0.598E-02
   9 F= -.71495680E+02 E0= -.71495680E+02  d E =-.655230E+00
       N       E                     dE             d eps       ncg     rms          rms(c)
DAV:   1    -0.717011534102E+02   -0.20548E+00   -0.53745E+01   768   0.307E+01    0.474E+00
RMM:   2    -0.717379237246E+02   -0.36770E-01   -0.26863E+00   991   0.674E+00    0.164E+00
RMM:   3    -0.717150846935E+02    0.22839E-01   -0.52400E-01  1192   0.253E+00    0.106E+00
RMM:   4    -0.717146558819E+02    0.42881E-03   -0.13911E-01  1231   0.117E+00    0.525E-01
RMM:   5    -0.717175603921E+02   -0.29045E-02   -0.43792E-02  1252   0.631E-01    0.217E-01
RMM:   6    -0.717185889387E+02   -0.10285E-02   -0.12470E-02  1245   0.334E-01    0.762E-02
RMM:   7    -0.717189354543E+02   -0.34652E-03   -0.34449E-03  1232   0.177E-01    0.365E-02
RMM:   8    -0.717190261907E+02   -0.90736E-04   -0.87607E-04  1133   0.956E-02    0.879E-03
RMM:   9    -0.717190362683E+02   -0.10078E-04   -0.10653E-04   682   0.598E-02
  10 F= -.71719036E+02 E0= -.71719036E+02  d E =-.223357E+00
       N       E                     dE             d eps       ncg     rms          rms(c)
DAV:   1    -0.717447628756E+02   -0.25737E-01   -0.16589E+01   848   0.173E+01    0.239E+00
RMM:   2    -0.717570419626E+02   -0.12279E-01   -0.78424E-01   996   0.375E+00    0.971E-01
RMM:   3    -0.717482325147E+02    0.88094E-02   -0.13422E-01  1199   0.138E+00    0.598E-01
RMM:   4    -0.717479785527E+02    0.25396E-03   -0.42868E-02  1210   0.640E-01    0.272E-01
RMM:   5    -0.717490116294E+02   -0.10331E-02   -0.14338E-02  1291   0.354E-01    0.119E-01
RMM:   6    -0.717493345684E+02   -0.32294E-03   -0.38106E-03  1211   0.182E-01    0.487E-02
RMM:   7    -0.717494271075E+02   -0.92539E-04   -0.91107E-04  1157   0.945E-02    0.175E-02
RMM:   8    -0.717494324189E+02   -0.53114E-05   -0.51795E-05   606   0.551E-02
  11 F= -.71749432E+02 E0= -.71749432E+02  d E =-.253753E+00
       N       E                     dE             d eps       ncg     rms          rms(c)
DAV:   1    -0.717753526741E+02   -0.25926E-01   -0.27549E+01   768   0.226E+01    0.279E+00
RMM:   2    -0.718793192514E+02   -0.10397E+00   -0.13267E+00  1003   0.470E+00    0.741E-01
RMM:   3    -0.718849504313E+02   -0.56312E-02   -0.20139E-01  1229   0.160E+00    0.770E-01
RMM:   4    -0.718858016407E+02   -0.85121E-03   -0.52300E-02  1202   0.688E-01    0.428E-01
RMM:   5    -0.718870420779E+02   -0.12404E-02   -0.15830E-02  1233   0.372E-01    0.175E-01
RMM:   6    -0.718874311185E+02   -0.38904E-03   -0.43430E-03  1237   0.204E-01    0.301E-02
RMM:   7    -0.718875526434E+02   -0.12152E-03   -0.13063E-03  1219   0.114E-01    0.143E-02
RMM:   8    -0.718875748707E+02   -0.22227E-04   -0.25476E-04   854   0.673E-02    0.603E-03
RMM:   9    -0.718875824793E+02   -0.76086E-05   -0.10663E-04   766   0.538E-02
  12 F= -.71887582E+02 E0= -.71887582E+02  d E =-.138150E+00
       N       E                     dE             d eps       ncg     rms          rms(c)
DAV:   1    -0.718797537228E+02    0.78211E-02   -0.63305E+00   944   0.109E+01    0.123E+00
RMM:   2    -0.719015202275E+02   -0.21767E-01   -0.27668E-01  1005   0.220E+00    0.330E-01
RMM:   3    -0.719020539934E+02   -0.53377E-03   -0.35405E-02  1226   0.725E-01    0.314E-01
RMM:   4    -0.719021583129E+02   -0.10432E-03   -0.10460E-02  1185   0.306E-01    0.161E-01
RMM:   5    -0.719024625909E+02   -0.30428E-03   -0.34627E-03  1221   0.171E-01    0.778E-02
RMM:   6    -0.719025491073E+02   -0.86516E-04   -0.94502E-04  1172   0.954E-02    0.164E-02
RMM:   7    -0.719025552396E+02   -0.61322E-05   -0.77551E-05   624   0.562E-02
  13 F= -.71902555E+02 E0= -.71902555E+02  d E =-.153123E+00
       N       E                     dE             d eps       ncg     rms          rms(c)
DAV:   1    -0.719476248336E+02   -0.45076E-01   -0.14620E+01   784   0.174E+01    0.254E+00
RMM:   2    -0.719842215590E+02   -0.36597E-01   -0.75883E-01   991   0.368E+00    0.659E-01
RMM:   3    -0.719783782063E+02    0.58434E-02   -0.10587E-01  1235   0.128E+00    0.516E-01
RMM:   4    -0.719784609516E+02   -0.82745E-04   -0.30446E-02  1248   0.538E-01    0.299E-01
RMM:   5    -0.719792222135E+02   -0.76126E-03   -0.10899E-02  1260   0.309E-01    0.129E-01
RMM:   6    -0.719794899183E+02   -0.26770E-03   -0.30484E-03  1244   0.171E-01    0.386E-02
RMM:   7    -0.719795677406E+02   -0.77822E-04   -0.81302E-04  1138   0.952E-02    0.175E-02
RMM:   8    -0.719795752783E+02   -0.75377E-05   -0.86286E-05   681   0.602E-02
  14 F= -.71979575E+02 E0= -.71979575E+02  d E =-.770200E-01
       N       E                     dE             d eps       ncg     rms          rms(c)
DAV:   1    -0.719813033449E+02   -0.17356E-02   -0.30566E+00   832   0.799E+00    0.117E+00
RMM:   2    -0.719890399745E+02   -0.77366E-02   -0.15672E-01   991   0.168E+00    0.303E-01
RMM:   3    -0.719879094221E+02    0.11306E-02   -0.22754E-02  1235   0.593E-01    0.212E-01
RMM:   4    -0.719879356515E+02   -0.26229E-04   -0.70163E-03  1224   0.253E-01    0.116E-01
RMM:   5    -0.719881296362E+02   -0.19398E-03   -0.25834E-03  1203   0.149E-01    0.578E-02
RMM:   6    -0.719881870848E+02   -0.57449E-04   -0.67221E-04  1116   0.832E-02    0.190E-02
RMM:   7    -0.719881884094E+02   -0.13246E-05   -0.33020E-05   564   0.502E-02
  15 F= -.71988188E+02 E0= -.71988188E+02  d E =-.856332E-01
       N       E                     dE             d eps       ncg     rms          rms(c)
DAV:   1    -0.720652981152E+02   -0.77111E-01   -0.89411E+00   768   0.137E+01    0.255E+00
RMM:   2    -0.720498340803E+02    0.15464E-01   -0.41930E-01  1013   0.291E+00    0.767E-01
RMM:   3    -0.720412599396E+02    0.85741E-02   -0.68856E-02  1164   0.104E+00    0.451E-01
RMM:   4    -0.720408287176E+02    0.43122E-03   -0.21055E-02  1217   0.475E-01    0.263E-01
RMM:   5    -0.720414593110E+02   -0.63059E-03   -0.80059E-03  1237   0.275E-01    0.986E-02
RMM:   6    -0.720416551142E+02   -0.19580E-03   -0.23713E-03  1211   0.158E-01    0.317E-02
RMM:   7    -0.720417379197E+02   -0.82805E-04   -0.85415E-04  1147   0.934E-02    0.179E-02
RMM:   8    -0.720417425700E+02   -0.46503E-05   -0.69961E-05   664   0.570E-02
  16 F= -.72041743E+02 E0= -.72041743E+02  d E =-.535542E-01
       N       E                     dE             d eps       ncg     rms          rms(c)
DAV:   1    -0.720822129004E+02   -0.40475E-01   -0.10220E+01   768   0.148E+01    0.275E+00
RMM:   2    -0.720654562764E+02    0.16757E-01   -0.48627E-01  1009   0.311E+00    0.826E-01
RMM:   3    -0.720552902911E+02    0.10166E-01   -0.79555E-02  1165   0.112E+00    0.475E-01
RMM:   4    -0.720548273975E+02    0.46289E-03   -0.24175E-02  1228   0.516E-01    0.279E-01
RMM:   5    -0.720555383579E+02   -0.71096E-03   -0.91531E-03  1235   0.296E-01    0.107E-01
RMM:   6    -0.720557624287E+02   -0.22407E-03   -0.27658E-03  1215   0.172E-01    0.304E-02
RMM:   7    -0.720558663252E+02   -0.10390E-03   -0.10740E-03  1175   0.103E-01    0.210E-02
RMM:   8    -0.720558773422E+02   -0.11017E-04   -0.13207E-04   727   0.614E-02
  17 F= -.72055877E+02 E0= -.72055877E+02  d E =-.676889E-01
       N       E                     dE             d eps       ncg     rms          rms(c)
DAV:   1    -0.720492186446E+02    0.66477E-02   -0.11982E+01   768   0.155E+01    0.187E+00
RMM:   2    -0.720839249713E+02   -0.34706E-01   -0.53390E-01   994   0.323E+00    0.535E-01
RMM:   3    -0.720819797348E+02    0.19452E-02   -0.69310E-02  1244   0.109E+00    0.502E-01
RMM:   4    -0.720818033866E+02    0.17635E-03   -0.21158E-02  1225   0.463E-01    0.253E-01
RMM:   5    -0.720821748674E+02   -0.37148E-03   -0.70869E-03  1217   0.270E-01    0.850E-02
RMM:   6    -0.720823831505E+02   -0.20828E-03   -0.25082E-03  1218   0.159E-01    0.251E-02
RMM:   7    -0.720824574202E+02   -0.74270E-04   -0.76622E-04  1097   0.887E-02    0.149E-02
RMM:   8    -0.720824659360E+02   -0.85158E-05   -0.99036E-05   670   0.544E-02
  18 F= -.72082466E+02 E0= -.72082466E+02  d E =-.265886E-01
       N       E                     dE             d eps       ncg     rms          rms(c)
DAV:   1    -0.720824806469E+02   -0.23227E-04   -0.12858E-02   920   0.502E-01    0.599E-02
RMM:   2    -0.720825261393E+02   -0.45492E-04   -0.65152E-04  1010   0.113E-01    0.168E-02
RMM:   3    -0.720825172625E+02    0.88767E-05   -0.10866E-05   558   0.502E-02
  19 F= -.72082517E+02 E0= -.72082517E+02  d E =-.266399E-01
       N       E                     dE             d eps       ncg     rms          rms(c)
DAV:   1    -0.720958818072E+02   -0.13356E-01   -0.40112E+00   768   0.954E+00    0.104E+00
RMM:   2    -0.721022607221E+02   -0.63789E-02   -0.11199E-01  1024   0.158E+00    0.286E-01
RMM:   3    -0.721025929501E+02   -0.33223E-03   -0.19922E-02  1249   0.590E-01    0.162E-01
RMM:   4    -0.721026657586E+02   -0.72809E-04   -0.62961E-03  1246   0.276E-01    0.617E-02
RMM:   5    -0.721028666867E+02   -0.20093E-03   -0.23365E-03  1242   0.158E-01    0.355E-02
RMM:   6    -0.721029281522E+02   -0.61465E-04   -0.65717E-04  1134   0.912E-02    0.161E-02
RMM:   7    -0.721029372803E+02   -0.91281E-05   -0.92926E-05   679   0.575E-02
  20 F= -.72102937E+02 E0= -.72102937E+02  d E =-.204200E-01
       N       E                     dE             d eps       ncg     rms          rms(c)
DAV:   1    -0.721004497422E+02    0.24784E-02   -0.63732E+00   768   0.120E+01    0.132E+00
RMM:   2    -0.721106891405E+02   -0.10239E-01   -0.17969E-01  1024   0.199E+00    0.362E-01
RMM:   3    -0.721113168214E+02   -0.62768E-03   -0.32983E-02  1247   0.759E-01    0.205E-01
RMM:   4    -0.721114568838E+02   -0.14006E-03   -0.10361E-02  1249   0.358E-01    0.787E-02
RMM:   5    -0.721117865470E+02   -0.32966E-03   -0.38431E-03  1274   0.204E-01    0.448E-02
RMM:   6    -0.721118975856E+02   -0.11104E-03   -0.11813E-03  1234   0.117E-01    0.207E-02
RMM:   7    -0.721119169689E+02   -0.19383E-04   -0.18510E-04   752   0.686E-02
  21 F= -.72111917E+02 E0= -.72111917E+02  d E =-.293997E-01
       N       E                     dE             d eps       ncg     rms          rms(c)
DAV:   1    -0.721162410252E+02   -0.43434E-02   -0.25154E+00   768   0.741E+00    0.574E-01
RMM:   2    -0.721225696420E+02   -0.63286E-02   -0.76450E-02  1030   0.128E+00    0.180E-01
RMM:   3    -0.721235296595E+02   -0.96002E-03   -0.13659E-02  1261   0.479E-01    0.122E-01
RMM:   4    -0.721237454813E+02   -0.21582E-03   -0.40832E-03  1283   0.212E-01    0.525E-02
RMM:   5    -0.721238785139E+02   -0.13303E-03   -0.14470E-03  1209   0.121E-01    0.267E-02
RMM:   6    -0.721239052168E+02   -0.26703E-04   -0.28399E-04   918   0.705E-02    0.981E-03
RMM:   7    -0.721239150208E+02   -0.98040E-05   -0.11490E-04   757   0.532E-02
  22 F= -.72123915E+02 E0= -.72123915E+02  d E =-.119981E-01
       N       E                     dE             d eps       ncg     rms          rms(c)
DAV:   1    -0.721158485712E+02    0.80566E-02   -0.47344E+00   768   0.101E+01    0.795E-01
RMM:   2    -0.721276337881E+02   -0.11785E-01   -0.14307E-01  1029   0.176E+00    0.248E-01
RMM:   3    -0.721294033695E+02   -0.17696E-02   -0.25269E-02  1263   0.649E-01    0.167E-01
RMM:   4    -0.721297788975E+02   -0.37553E-03   -0.73233E-03  1281   0.286E-01    0.727E-02
RMM:   5    -0.721300096735E+02   -0.23078E-03   -0.25393E-03  1237   0.160E-01    0.364E-02
RMM:   6    -0.721300775944E+02   -0.67921E-04   -0.71149E-04  1170   0.918E-02    0.143E-02
RMM:   7    -0.721300821642E+02   -0.45698E-05   -0.41942E-05   613   0.557E-02
  23 F= -.72130082E+02 E0= -.72130082E+02  d E =-.181652E-01
       N       E                     dE             d eps       ncg     rms          rms(c)
DAV:   1    -0.721347739997E+02   -0.46964E-02   -0.49476E-01   880   0.319E+00    0.334E-01
RMM:   2    -0.721353250746E+02   -0.55107E-03   -0.16068E-02  1025   0.586E-01    0.119E-01
RMM:   3    -0.721352774688E+02    0.47606E-04   -0.26734E-03  1212   0.214E-01    0.797E-02
RMM:   4    -0.721352570857E+02    0.20383E-04   -0.90890E-04  1105   0.968E-02    0.331E-02
RMM:   5    -0.721352683997E+02   -0.11314E-04   -0.17786E-04   847   0.589E-02
  24 F= -.72135268E+02 E0= -.72135268E+02  d E =-.518624E-02
       N       E                     dE             d eps       ncg     rms          rms(c)
DAV:   1    -0.721432988802E+02   -0.80418E-02   -0.44577E+00   768   0.958E+00    0.101E+00
RMM:   2    -0.721479637996E+02   -0.46649E-02   -0.14265E-01  1022   0.175E+00    0.357E-01
RMM:   3    -0.721472855005E+02    0.67830E-03   -0.21968E-02  1205   0.613E-01    0.241E-01
RMM:   4    -0.721470109178E+02    0.27458E-03   -0.71852E-03  1178   0.268E-01    0.102E-01
RMM:   5    -0.721472306666E+02   -0.21975E-03   -0.26789E-03  1220   0.155E-01    0.508E-02
RMM:   6    -0.721472950939E+02   -0.64427E-04   -0.74326E-04  1177   0.875E-02    0.131E-02
RMM:   7    -0.721472957796E+02   -0.68573E-06   -0.27282E-05   580   0.547E-02
  25 F= -.72147296E+02 E0= -.72147296E+02  d E =-.172136E-01
       N       E                     dE             d eps       ncg     rms          rms(c)
DAV:   1    -0.721405107666E+02    0.67843E-02   -0.17811E+01   768   0.193E+01    0.208E+00
RMM:   2    -0.721587873201E+02   -0.18277E-01   -0.57867E-01  1019   0.350E+00    0.713E-01
RMM:   3    -0.721556624039E+02    0.31249E-02   -0.87538E-02  1198   0.122E+00    0.484E-01
RMM:   4    -0.721545735014E+02    0.10889E-02   -0.27562E-02  1188   0.544E-01    0.207E-01
RMM:   5    -0.721553606226E+02   -0.78712E-03   -0.97117E-03  1267   0.301E-01    0.103E-01
RMM:   6    -0.721556006553E+02   -0.24003E-03   -0.27748E-03  1271   0.169E-01    0.254E-02
RMM:   7    -0.721556851109E+02   -0.84456E-04   -0.93453E-04  1206   0.995E-02    0.148E-02
RMM:   8    -0.721556973272E+02   -0.12216E-04   -0.12088E-04   709   0.618E-02
  26 F= -.72155697E+02 E0= -.72155697E+02  d E =-.256152E-01
       N       E                     dE             d eps       ncg     rms          rms(c)
DAV:   1    -0.721583483113E+02   -0.26632E-02   -0.30910E-01   968   0.253E+00    0.244E-01
RMM:   2    -0.721591011786E+02   -0.75287E-03   -0.10874E-02  1028   0.481E-01    0.756E-02
RMM:   3    -0.721591681770E+02   -0.66998E-04   -0.17633E-03  1237   0.176E-01    0.630E-02
RMM:   4    -0.721591868599E+02   -0.18683E-04   -0.59810E-04  1136   0.768E-02    0.274E-02
RMM:   5    -0.721591814826E+02    0.53773E-05    0.28455E-05   485   0.477E-02
  27 F= -.72159181E+02 E0= -.72159181E+02  d E =-.348416E-02
       N       E                     dE             d eps       ncg     rms          rms(c)
DAV:   1    -0.721603951549E+02   -0.12083E-02   -0.27692E+00   768   0.760E+00    0.762E-01
RMM:   2    -0.721674342265E+02   -0.70391E-02   -0.10088E-01  1010   0.146E+00    0.230E-01
RMM:   3    -0.721678589249E+02   -0.42470E-03   -0.15046E-02  1237   0.508E-01    0.200E-01
RMM:   4    -0.721679171665E+02   -0.58242E-04   -0.48831E-03  1167   0.212E-01    0.852E-02
RMM:   5    -0.721680680483E+02   -0.15088E-03   -0.17296E-03  1192   0.126E-01    0.411E-02
RMM:   6    -0.721681086914E+02   -0.40643E-04   -0.46327E-04  1090   0.729E-02    0.131E-02
RMM:   7    -0.721681107123E+02   -0.20209E-05   -0.30571E-05   556   0.473E-02
  28 F= -.72168111E+02 E0= -.72168111E+02  d E =-.124134E-01
       N       E                     dE             d eps       ncg     rms          rms(c)
DAV:   1    -0.721493522324E+02    0.18756E-01   -0.11085E+01   768   0.152E+01    0.157E+00
RMM:   2    -0.721774541239E+02   -0.28102E-01   -0.40877E-01  1006   0.290E+00    0.469E-01
RMM:   3    -0.721785271083E+02   -0.10730E-02   -0.58777E-02  1238   0.100E+00    0.417E-01
RMM:   4    -0.721786725971E+02   -0.14549E-03   -0.18455E-02  1209   0.424E-01    0.178E-01
RMM:   5    -0.721792148940E+02   -0.54230E-03   -0.63041E-03  1245   0.240E-01    0.855E-02
RMM:   6    -0.721793765686E+02   -0.16167E-03   -0.18607E-03  1230   0.137E-01    0.237E-02
RMM:   7    -0.721794276755E+02   -0.51107E-04   -0.52875E-04  1088   0.793E-02    0.117E-02
RMM:   8    -0.721794318658E+02   -0.41903E-05   -0.45256E-05   598   0.521E-02
  29 F= -.72179432E+02 E0= -.72179432E+02  d E =-.237345E-01
       N       E                     dE             d eps       ncg     rms          rms(c)
DAV:   1    -0.720488273098E+02    0.13060E+00   -0.44180E+01   768   0.303E+01    0.342E+00
RMM:   2    -0.721676608055E+02   -0.11883E+00   -0.17471E+00   996   0.585E+00    0.978E-01
RMM:   3    -0.721735798759E+02   -0.59191E-02   -0.27819E-01  1237   0.205E+00    0.922E-01
RMM:   4    -0.721744617740E+02   -0.88190E-03   -0.76855E-02  1201   0.906E-01    0.405E-01
RMM:   5    -0.721763664067E+02   -0.19046E-02   -0.23181E-02  1256   0.481E-01    0.187E-01
RMM:   6    -0.721769565852E+02   -0.59018E-03   -0.70227E-03  1263   0.274E-01    0.403E-02
RMM:   7    -0.721771736611E+02   -0.21708E-03   -0.22321E-03  1220   0.153E-01    0.239E-02
RMM:   8    -0.721772435702E+02   -0.69909E-04   -0.69190E-04  1171   0.896E-02    0.977E-03
RMM:   9    -0.721772490804E+02   -0.55103E-05   -0.75718E-05   664   0.565E-02
  30 F= -.72177249E+02 E0= -.72177249E+02  d E =-.215518E-01
       N       E                     dE             d eps       ncg     rms          rms(c)
DAV:   1    -0.721417666445E+02    0.35477E-01   -0.13699E+01   768   0.169E+01    0.161E+00
RMM:   2    -0.721795656206E+02   -0.37799E-01   -0.52570E-01   998   0.326E+00    0.514E-01
RMM:   3    -0.721817445076E+02   -0.21789E-02   -0.84609E-02  1231   0.115E+00    0.419E-01
RMM:   4    -0.721815732253E+02    0.17128E-03   -0.23001E-02  1190   0.504E-01    0.174E-01
RMM:   5    -0.721821706160E+02   -0.59739E-03   -0.74538E-03  1252   0.272E-01    0.860E-02
RMM:   6    -0.721823469034E+02   -0.17629E-03   -0.22090E-03  1258   0.151E-01    0.308E-02
RMM:   7    -0.721824137331E+02   -0.66830E-04   -0.73868E-04  1183   0.889E-02    0.163E-02
RMM:   8    -0.721824178479E+02   -0.41148E-05   -0.48660E-05   618   0.559E-02
  31 F= -.72182418E+02 E0= -.72182418E+02  d E =-.267205E-01
       N       E                     dE             d eps       ncg     rms          rms(c)
DAV:   1    -0.721887429989E+02   -0.63293E-02   -0.15030E+00   768   0.563E+00    0.526E-01
RMM:   2    -0.721912464403E+02   -0.25034E-02   -0.55747E-02   981   0.105E+00    0.194E-01
RMM:   3    -0.721907900385E+02    0.45640E-03   -0.76008E-03  1212   0.362E-01    0.149E-01
RMM:   4    -0.721907431598E+02    0.46879E-04   -0.21573E-03  1117   0.140E-01    0.693E-02
RMM:   5    -0.721907982854E+02   -0.55126E-04   -0.77356E-04  1139   0.835E-02    0.323E-02
RMM:   6    -0.721907945332E+02    0.37522E-05   -0.65733E-06   535   0.489E-02
  32 F= -.72190795E+02 E0= -.72190795E+02  d E =-.837669E-02
       N       E                     dE             d eps       ncg     rms          rms(c)
DAV:   1    -0.721933653977E+02   -0.25671E-02   -0.13624E+01   768   0.169E+01    0.168E+00
RMM:   2    -0.722138353825E+02   -0.20470E-01   -0.49587E-01   999   0.319E+00    0.586E-01
RMM:   3    -0.722124610289E+02    0.13744E-02   -0.77169E-02  1229   0.113E+00    0.471E-01
RMM:   4    -0.722124370103E+02    0.24019E-04   -0.23241E-02  1212   0.468E-01    0.222E-01
RMM:   5    -0.722130467642E+02   -0.60975E-03   -0.82164E-03  1249   0.270E-01    0.102E-01
RMM:   6    -0.722132589388E+02   -0.21217E-03   -0.24956E-03  1223   0.153E-01    0.318E-02
RMM:   7    -0.722133293018E+02   -0.70363E-04   -0.76358E-04  1174   0.895E-02    0.166E-02
RMM:   8    -0.722133316485E+02   -0.23467E-05   -0.19779E-05   575   0.553E-02
  33 F= -.72213332E+02 E0= -.72213332E+02  d E =-.309138E-01
       N       E                     dE             d eps       ncg     rms          rms(c)
DAV:   1    -0.721605229252E+02    0.52806E-01   -0.54706E+01   768   0.340E+01    0.380E+00
RMM:   2    -0.722461084962E+02   -0.85586E-01   -0.21224E+00   991   0.645E+00    0.120E+00
RMM:   3    -0.722421666745E+02    0.39418E-02   -0.35553E-01  1226   0.231E+00    0.105E+00
RMM:   4    -0.722423495922E+02   -0.18292E-03   -0.96925E-02  1209   0.102E+00    0.494E-01
RMM:   5    -0.722445090754E+02   -0.21595E-02   -0.30606E-02  1217   0.550E-01    0.217E-01
RMM:   6    -0.722452962874E+02   -0.78721E-03   -0.97564E-03  1281   0.319E-01    0.563E-02
RMM:   7    -0.722455827815E+02   -0.28649E-03   -0.30174E-03  1231   0.176E-01    0.312E-02
RMM:   8    -0.722456829359E+02   -0.10015E-03   -0.98341E-04  1192   0.104E-01    0.112E-02
RMM:   9    -0.722457046137E+02   -0.21678E-04   -0.25529E-04   907   0.648E-02    0.416E-03
RMM:  10    -0.722457153233E+02   -0.10710E-04   -0.13089E-04   760   0.512E-02
  34 F= -.72245715E+02 E0= -.72245715E+02  d E =-.632975E-01
       N       E                     dE             d eps       ncg     rms          rms(c)
DAV:   1    -0.717279033556E+02    0.51780E+00   -0.21704E+02   768   0.685E+01    0.102E+01
RMM:   2    -0.721850683945E+02   -0.45717E+00   -0.10556E+01   972   0.134E+01    0.277E+00
RMM:   3    -0.722331595040E+02   -0.48091E-01   -0.23196E+00  1216   0.509E+00    0.280E+00
RMM:   4    -0.722418953334E+02   -0.87358E-02   -0.51542E-01  1177   0.238E+00    0.131E+00
RMM:   5    -0.722483293520E+02   -0.64340E-02   -0.11109E-01  1194   0.117E+00    0.527E-01
RMM:   6    -0.722513493644E+02   -0.30200E-02   -0.40602E-02  1270   0.688E-01    0.105E-01
RMM:   7    -0.722524880979E+02   -0.11387E-02   -0.12001E-02  1250   0.362E-01    0.602E-02
RMM:   8    -0.722528453785E+02   -0.35728E-03   -0.35865E-03  1272   0.202E-01    0.229E-02
RMM:   9    -0.722529657896E+02   -0.12041E-03   -0.13822E-03  1168   0.121E-01    0.869E-03
RMM:  10    -0.722530069721E+02   -0.41182E-04   -0.40772E-04   819   0.771E-02    0.629E-03
RMM:  11    -0.722530230377E+02   -0.16066E-04   -0.17583E-04   739   0.600E-02
  35 F= -.72253023E+02 E0= -.72253023E+02  d E =-.706052E-01
       N       E                     dE             d eps       ncg     rms          rms(c)
DAV:   1    -0.721787835710E+02    0.74223E-01   -0.39456E+01   768   0.290E+01    0.270E+00
RMM:   2    -0.722511026731E+02   -0.72319E-01   -0.15762E+00  1001   0.558E+00    0.107E+00
RMM:   3    -0.722592185646E+02   -0.81159E-02   -0.34300E-01  1217   0.212E+00    0.792E-01
RMM:   4    -0.722570454116E+02    0.21732E-02   -0.76236E-02  1178   0.956E-01    0.343E-01
RMM:   5    -0.722585210897E+02   -0.14757E-02   -0.24512E-02  1244   0.514E-01    0.156E-01
RMM:   6    -0.722591550469E+02   -0.63396E-03   -0.76925E-03  1289   0.281E-01    0.642E-02
RMM:   7    -0.722593733103E+02   -0.21826E-03   -0.25680E-03  1262   0.165E-01    0.396E-02
RMM:   8    -0.722594711477E+02   -0.97837E-04   -0.99524E-04  1173   0.101E-01    0.993E-03
RMM:   9    -0.722594937051E+02   -0.22557E-04   -0.27318E-04   957   0.653E-02    0.421E-03
RMM:  10    -0.722595001221E+02   -0.64170E-05   -0.81872E-05   679   0.491E-02
  36 F= -.72259500E+02 E0= -.72259500E+02  d E =-.770823E-01
       N       E                     dE             d eps       ncg     rms          rms(c)
DAV:   1    -0.722986953354E+02   -0.39202E-01   -0.18134E+01   768   0.201E+01    0.222E+00
RMM:   2    -0.722957559402E+02    0.29394E-02   -0.61171E-01  1014   0.362E+00    0.788E-01
RMM:   3    -0.722896233227E+02    0.61326E-02   -0.10406E-01  1187   0.129E+00    0.519E-01
RMM:   4    -0.722895834604E+02    0.39862E-04   -0.29810E-02  1243   0.547E-01    0.281E-01
RMM:   5    -0.722904086248E+02   -0.82516E-03   -0.11378E-02  1284   0.321E-01    0.105E-01
RMM:   6    -0.722906830886E+02   -0.27446E-03   -0.32391E-03  1246   0.181E-01    0.323E-02
RMM:   7    -0.722907959165E+02   -0.11283E-03   -0.11460E-03  1192   0.110E-01    0.184E-02
RMM:   8    -0.722908173650E+02   -0.21448E-04   -0.22589E-04   850   0.687E-02    0.714E-03
RMM:   9    -0.722908307688E+02   -0.13404E-04   -0.16209E-04   835   0.562E-02
  37 F= -.72290831E+02 E0= -.72290831E+02  d E =-.313306E-01
       N       E                     dE             d eps       ncg     rms          rms(c)
DAV:   1    -0.723504408616E+02   -0.59623E-01   -0.16477E+02   768   0.612E+01    0.886E+00
RMM:   2    -0.723771714768E+02   -0.26731E-01   -0.68906E+00   998   0.114E+01    0.245E+00
RMM:   3    -0.723507632344E+02    0.26408E-01   -0.13885E+00  1176   0.426E+00    0.205E+00
RMM:   4    -0.723542140192E+02   -0.34508E-02   -0.34551E-01  1231   0.204E+00    0.102E+00
RMM:   5    -0.723601407652E+02   -0.59267E-02   -0.94238E-02  1207   0.105E+00    0.352E-01
RMM:   6    -0.723628593885E+02   -0.27186E-02   -0.31828E-02  1301   0.615E-01    0.977E-02
RMM:   7    -0.723638523200E+02   -0.99293E-03   -0.10066E-02  1263   0.333E-01    0.559E-02
RMM:   8    -0.723641633728E+02   -0.31105E-03   -0.31393E-03  1282   0.192E-01    0.232E-02
RMM:   9    -0.723643000296E+02   -0.13666E-03   -0.13983E-03  1161   0.118E-01    0.117E-02
RMM:  10    -0.723643388819E+02   -0.38852E-04   -0.38212E-04   761   0.770E-02    0.976E-03
RMM:  11    -0.723643603259E+02   -0.21444E-04   -0.23434E-04   825   0.645E-02    0.348E-03
RMM:  12    -0.723643717256E+02   -0.11400E-04   -0.14200E-04   738   0.544E-02
  38 F= -.72364372E+02 E0= -.72364372E+02  d E =-.104872E+00
       N       E                     dE             d eps       ncg     rms          rms(c)
DAV:   1    -0.711809095837E+02    0.11835E+01   -0.64981E+02   768   0.125E+02    0.285E+01
RMM:   2    -0.720477617892E+02   -0.86685E+00   -0.40504E+01   971   0.252E+01    0.640E+00
RMM:   3    -0.722108340629E+02   -0.16307E+00   -0.96125E+00  1149   0.959E+00    0.698E+00
RMM:   4    -0.723246412002E+02   -0.11381E+00   -0.26477E+00  1206   0.506E+00    0.307E+00
RMM:   5    -0.723524633794E+02   -0.27822E-01   -0.47528E-01  1228   0.249E+00    0.866E-01
RMM:   6    -0.723656672284E+02   -0.13204E-01   -0.15751E-01  1267   0.138E+00    0.211E-01
RMM:   7    -0.723690787458E+02   -0.34115E-02   -0.37067E-02  1287   0.700E-01    0.120E-01
RMM:   8    -0.723701584268E+02   -0.10797E-02   -0.11401E-02  1299   0.388E-01    0.451E-02
RMM:   9    -0.723705912219E+02   -0.43280E-03   -0.45299E-03  1302   0.227E-01    0.244E-02
RMM:  10    -0.723707969206E+02   -0.20570E-03   -0.20415E-03  1215   0.143E-01    0.221E-02
RMM:  11    -0.723708703572E+02   -0.73437E-04   -0.73956E-04   829   0.900E-02    0.113E-02
RMM:  12    -0.723709050158E+02   -0.34659E-04   -0.36319E-04   659   0.719E-02    0.499E-03
RMM:  13    -0.723709323704E+02   -0.27355E-04   -0.31059E-04   826   0.649E-02    0.230E-03
RMM:  14    -0.723709441186E+02   -0.11748E-04   -0.14045E-04   632   0.559E-02
  39 F= -.72370944E+02 E0= -.72370944E+02  d E =-.111444E+00
       N       E                     dE             d eps       ncg     rms          rms(c)
DAV:   1    -0.723595065328E+02    0.11426E-01   -0.67473E+01   768   0.395E+01    0.374E+00
RMM:   2    -0.723924489471E+02   -0.32942E-01   -0.27958E+00  1000   0.737E+00    0.174E+00
RMM:   3    -0.723879797037E+02    0.44692E-02   -0.71136E-01  1172   0.296E+00    0.107E+00
RMM:   4    -0.723845997793E+02    0.33799E-02   -0.14661E-01  1208   0.136E+00    0.505E-01
RMM:   5    -0.723865154429E+02   -0.19157E-02   -0.45390E-02  1255   0.729E-01    0.192E-01
RMM:   6    -0.723878550748E+02   -0.13396E-02   -0.15015E-02  1305   0.393E-01    0.965E-02
RMM:   7    -0.723882868176E+02   -0.43174E-03   -0.45054E-03  1305   0.217E-01    0.397E-02
RMM:   8    -0.723884443812E+02   -0.15756E-03   -0.15629E-03  1196   0.125E-01    0.106E-02
RMM:   9    -0.723884895980E+02   -0.45217E-04   -0.46565E-04  1027   0.767E-02    0.585E-03
RMM:  10    -0.723884989355E+02   -0.93374E-05   -0.10125E-04   736   0.543E-02
  40 F= -.72388499E+02 E0= -.72388499E+02  d E =-.128999E+00
       N       E                     dE             d eps       ncg     rms          rms(c)
DAV:   1    -0.724003458171E+02   -0.11856E-01   -0.29155E+00   848   0.820E+00    0.768E-01
RMM:   2    -0.724026892220E+02   -0.23434E-02   -0.95644E-02  1013   0.145E+00    0.274E-01
RMM:   3    -0.724020403252E+02    0.64890E-03   -0.14445E-02  1190   0.492E-01    0.202E-01
RMM:   4    -0.724019812885E+02    0.59037E-04   -0.44109E-03  1218   0.208E-01    0.108E-01
RMM:   5    -0.724020777167E+02   -0.96428E-04   -0.15649E-03  1160   0.122E-01    0.367E-02
RMM:   6    -0.724021173747E+02   -0.39658E-04   -0.45846E-04  1036   0.739E-02    0.105E-02
RMM:   7    -0.724021216871E+02   -0.43124E-05   -0.55169E-05   612   0.503E-02
  41 F= -.72402122E+02 E0= -.72402122E+02  d E =-.136228E-01
       N       E                     dE             d eps       ncg     rms          rms(c)
DAV:   1    -0.724229917618E+02   -0.20874E-01   -0.26372E+01   768   0.247E+01    0.257E+00
RMM:   2    -0.724418119248E+02   -0.18820E-01   -0.87700E-01  1018   0.439E+00    0.831E-01
RMM:   3    -0.724385172861E+02    0.32946E-02   -0.14315E-01  1204   0.152E+00    0.681E-01
RMM:   4    -0.724385659084E+02   -0.48622E-04   -0.44086E-02  1247   0.675E-01    0.346E-01
RMM:   5    -0.724395252115E+02   -0.95930E-03   -0.15449E-02  1252   0.395E-01    0.105E-01
RMM:   6    -0.724400219847E+02   -0.49677E-03   -0.55289E-03  1296   0.238E-01    0.380E-02
RMM:   7    -0.724401996790E+02   -0.17769E-03   -0.18075E-03  1227   0.138E-01    0.204E-02
RMM:   8    -0.724402515509E+02   -0.51872E-04   -0.52304E-04   995   0.843E-02    0.546E-03
RMM:   9    -0.724402683552E+02   -0.16804E-04   -0.18331E-04   776   0.615E-02
  42 F= -.72440268E+02 E0= -.72440268E+02  d E =-.517694E-01
       N       E                     dE             d eps       ncg     rms          rms(c)
DAV:   1    -0.724107401658E+02    0.29511E-01   -0.10580E+02   768   0.497E+01    0.627E+00
RMM:   2    -0.725005493128E+02   -0.89809E-01   -0.39451E+00  1013   0.901E+00    0.175E+00
RMM:   3    -0.724953923602E+02    0.51570E-02   -0.69898E-01  1201   0.316E+00    0.166E+00
RMM:   4    -0.724963047080E+02   -0.91235E-03   -0.18931E-01  1234   0.149E+00    0.789E-01
RMM:   5    -0.724995188465E+02   -0.32141E-02   -0.56204E-02  1223   0.805E-01    0.224E-01
RMM:   6    -0.725013376876E+02   -0.18188E-02   -0.20825E-02  1311   0.485E-01    0.719E-02
RMM:   7    -0.725020026902E+02   -0.66500E-03   -0.67686E-03  1268   0.270E-01    0.407E-02
RMM:   8    -0.725022303199E+02   -0.22763E-03   -0.22890E-03  1250   0.160E-01    0.122E-02
RMM:   9    -0.725023255613E+02   -0.95241E-04   -0.96027E-04  1059   0.101E-01    0.988E-03
RMM:  10    -0.725023621361E+02   -0.36575E-04   -0.36955E-04   814   0.712E-02    0.716E-03
RMM:  11    -0.725023735110E+02   -0.11375E-04   -0.13469E-04   601   0.587E-02
  43 F= -.72502374E+02 E0= -.72502374E+02  d E =-.113875E+00
       N       E                     dE             d eps       ncg     rms          rms(c)
DAV:   1    -0.716248452617E+02    0.87752E+00   -0.41480E+02   768   0.998E+01    0.192E+01
RMM:   2    -0.724417572253E+02   -0.81691E+00   -0.22700E+01   954   0.195E+01    0.447E+00
RMM:   3    -0.724748682424E+02   -0.33111E-01   -0.51944E+00  1170   0.742E+00    0.498E+00
RMM:   4    -0.725180305917E+02   -0.43162E-01   -0.12771E+00  1209   0.365E+00    0.223E+00
RMM:   5    -0.725302795594E+02   -0.12249E-01   -0.22992E-01  1216   0.174E+00    0.680E-01
RMM:   6    -0.725370992595E+02   -0.68197E-02   -0.81445E-02  1269   0.995E-01    0.142E-01
RMM:   7    -0.725390948053E+02   -0.19955E-02   -0.21042E-02  1262   0.504E-01    0.834E-02
RMM:   8    -0.725397374053E+02   -0.64260E-03   -0.66197E-03  1297   0.284E-01    0.251E-02
RMM:   9    -0.725399981384E+02   -0.26073E-03   -0.27303E-03  1267   0.168E-01    0.165E-02
RMM:  10    -0.725401100464E+02   -0.11191E-03   -0.11218E-03  1007   0.109E-01    0.136E-02
RMM:  11    -0.725401563043E+02   -0.46258E-04   -0.48116E-04   763   0.768E-02    0.576E-03
RMM:  12    -0.725401783197E+02   -0.22015E-04   -0.24752E-04   674   0.645E-02    0.221E-03
RMM:  13    -0.725401901299E+02   -0.11810E-04   -0.14415E-04   613   0.587E-02
  44 F= -.72540190E+02 E0= -.72540190E+02  d E =-.151691E+00
       N       E                     dE             d eps       ncg     rms          rms(c)
DAV:   1    -0.725997682467E+02   -0.59590E-01   -0.16657E+00  1024   0.617E+00    0.867E-01
RMM:   2    -0.726031445034E+02   -0.33763E-02   -0.64657E-02  1024   0.117E+00    0.333E-01
RMM:   3    -0.726031890919E+02   -0.44589E-04   -0.10450E-02  1246   0.399E-01    0.237E-01
RMM:   4    -0.726031427421E+02    0.46350E-04   -0.32391E-03  1202   0.189E-01    0.519E-02
RMM:   5    -0.726032279826E+02   -0.85240E-04   -0.10866E-03  1175   0.109E-01    0.256E-02
RMM:   6    -0.726032413505E+02   -0.13368E-04   -0.18376E-04   750   0.665E-02
  45 F= -.72603241E+02 E0= -.72603241E+02  d E =-.630512E-01
       N       E                     dE             d eps       ncg     rms          rms(c)
DAV:   1    -0.726730818803E+02   -0.69854E-01   -0.14720E+01   784   0.183E+01    0.256E+00
RMM:   2    -0.727090415561E+02   -0.35960E-01   -0.62792E-01  1023   0.363E+00    0.103E+00
RMM:   3    -0.727103098766E+02   -0.12683E-02   -0.10251E-01  1247   0.123E+00    0.811E-01
RMM:   4    -0.727091491293E+02    0.11607E-02   -0.29744E-02  1180   0.584E-01    0.174E-01
RMM:   5    -0.727098789274E+02   -0.72980E-03   -0.97694E-03  1298   0.325E-01    0.807E-02
RMM:   6    -0.727101250075E+02   -0.24608E-03   -0.31693E-03  1260   0.185E-01    0.447E-02
RMM:   7    -0.727102141232E+02   -0.89116E-04   -0.11311E-03  1228   0.111E-01    0.268E-02
RMM:   8    -0.727102475146E+02   -0.33391E-04   -0.39381E-04  1115   0.713E-02    0.107E-02
RMM:   9    -0.727102507746E+02   -0.32600E-05   -0.59127E-05   612   0.499E-02
  46 F= -.72710251E+02 E0= -.72710251E+02  d E =-.170061E+00
       N       E                     dE             d eps       ncg     rms          rms(c)
DAV:   1    -0.727144944994E+02   -0.42470E-02   -0.26086E+00   848   0.765E+00    0.107E+00
RMM:   2    -0.727206392999E+02   -0.61448E-02   -0.10944E-01  1022   0.152E+00    0.398E-01
RMM:   3    -0.727207172734E+02   -0.77974E-04   -0.16892E-02  1248   0.507E-01    0.290E-01
RMM:   4    -0.727205765399E+02    0.14073E-03   -0.52503E-03  1192   0.239E-01    0.668E-02
RMM:   5    -0.727207127770E+02   -0.13624E-03   -0.17778E-03  1197   0.137E-01    0.330E-02
RMM:   6    -0.727207556569E+02   -0.42880E-04   -0.53054E-04  1087   0.817E-02    0.178E-02
RMM:   7    -0.727207608042E+02   -0.51473E-05   -0.84212E-05   671   0.541E-02
  47 F= -.72720761E+02 E0= -.72720761E+02  d E =-.180571E+00
       N       E                     dE             d eps       ncg     rms          rms(c)
DAV:   1    -0.727749042342E+02   -0.54149E-01   -0.32509E+00   768   0.873E+00    0.619E-01
RMM:   2    -0.727819067870E+02   -0.70026E-02   -0.10216E-01  1023   0.148E+00    0.243E-01
RMM:   3    -0.727828676399E+02   -0.96085E-03   -0.16715E-02  1240   0.511E-01    0.187E-01
RMM:   4    -0.727828848521E+02   -0.17212E-04   -0.51953E-03  1206   0.238E-01    0.642E-02
RMM:   5    -0.727830423681E+02   -0.15752E-03   -0.18811E-03  1228   0.139E-01    0.333E-02
RMM:   6    -0.727830831530E+02   -0.40785E-04   -0.67168E-04  1207   0.862E-02    0.109E-02
RMM:   7    -0.727830871088E+02   -0.39558E-05   -0.49675E-05   607   0.550E-02
  48 F= -.72783087E+02 E0= -.72783087E+02  d E =-.623263E-01
       N       E                     dE             d eps       ncg     rms          rms(c)
DAV:   1    -0.728639508150E+02   -0.80868E-01   -0.29173E+01   768   0.261E+01    0.200E+00
RMM:   2    -0.729278941107E+02   -0.63943E-01   -0.94562E-01  1022   0.447E+00    0.729E-01
RMM:   3    -0.729377314257E+02   -0.98373E-02   -0.16381E-01  1255   0.156E+00    0.564E-01
RMM:   4    -0.729380038259E+02   -0.27240E-03   -0.45445E-02  1215   0.727E-01    0.210E-01
RMM:   5    -0.729392442054E+02   -0.12404E-02   -0.15266E-02  1280   0.407E-01    0.103E-01
RMM:   6    -0.729395745832E+02   -0.33038E-03   -0.52421E-03  1283   0.244E-01    0.310E-02
RMM:   7    -0.729397767944E+02   -0.20221E-03   -0.21006E-03  1234   0.148E-01    0.181E-02
RMM:   8    -0.729398355381E+02   -0.58744E-04   -0.59060E-04   986   0.878E-02    0.772E-03
RMM:   9    -0.729398491842E+02   -0.13646E-04   -0.16581E-04   739   0.634E-02
  49 F= -.72939849E+02 E0= -.72939849E+02  d E =-.219088E+00
       N       E                     dE             d eps       ncg     rms          rms(c)
DAV:   1    -0.727494200834E+02    0.19042E+00   -0.11468E+02   768   0.519E+01    0.466E+00
RMM:   2    -0.730453997995E+02   -0.29598E+00   -0.43529E+00  1018   0.920E+00    0.149E+00
RMM:   3    -0.731119766819E+02   -0.66577E-01   -0.96597E-01  1260   0.340E+00    0.123E+00
RMM:   4    -0.731162394743E+02   -0.42628E-02   -0.20842E-01  1216   0.160E+00    0.524E-01
RMM:   5    -0.731200983216E+02   -0.38588E-02   -0.57221E-02  1284   0.854E-01    0.215E-01
RMM:   6    -0.731214703652E+02   -0.13720E-02   -0.20014E-02  1312   0.504E-01    0.618E-02
RMM:   7    -0.731222141780E+02   -0.74381E-03   -0.76560E-03  1276   0.292E-01    0.370E-02
RMM:   8    -0.731224717751E+02   -0.25760E-03   -0.25948E-03  1279   0.171E-01    0.163E-02
RMM:   9    -0.731225678136E+02   -0.96038E-04   -0.10296E-03  1198   0.105E-01    0.789E-03
RMM:  10    -0.731225999428E+02   -0.32129E-04   -0.31482E-04   708   0.708E-02    0.502E-03
RMM:  11    -0.731226117286E+02   -0.11786E-04   -0.13665E-04   619   0.608E-02
  50 F= -.73122612E+02 E0= -.73122612E+02  d E =-.401851E+00
       N       E                     dE             d eps       ncg     rms          rms(c)
DAV:   1    -0.706085042999E+02    0.25141E+01   -0.42994E+02   768   0.101E+02    0.134E+01
RMM:   2    -0.723997076000E+02   -0.17912E+01   -0.24993E+01   977   0.199E+01    0.355E+00
RMM:   3    -0.728732815902E+02   -0.47357E+00   -0.71047E+00  1250   0.787E+00    0.354E+00
RMM:   4    -0.729692134644E+02   -0.95932E-01   -0.16492E+00  1205   0.385E+00    0.166E+00
RMM:   5    -0.729846874159E+02   -0.15474E-01   -0.31142E-01  1247   0.194E+00    0.566E-01
RMM:   6    -0.729907080818E+02   -0.60207E-02   -0.96613E-02  1279   0.111E+00    0.138E-01
RMM:   7    -0.729934941604E+02   -0.27861E-02   -0.29518E-02  1287   0.609E-01    0.872E-02
RMM:   8    -0.729944275091E+02   -0.93335E-03   -0.97954E-03  1312   0.345E-01    0.366E-02
RMM:   9    -0.729947566303E+02   -0.32912E-03   -0.34949E-03  1295   0.198E-01    0.118E-02
RMM:  10    -0.729949124329E+02   -0.15580E-03   -0.15416E-03  1089   0.125E-01    0.131E-02
RMM:  11    -0.729949710474E+02   -0.58614E-04   -0.58961E-04   783   0.854E-02    0.478E-03
RMM:  12    -0.729950002547E+02   -0.29207E-04   -0.30654E-04   702   0.713E-02    0.708E-03
RMM:  13    -0.729950218199E+02   -0.21565E-04   -0.24780E-04   809   0.640E-02    0.309E-03
RMM:  14    -0.729950272550E+02   -0.54351E-05   -0.74128E-05   577   0.556E-02
  51 F= -.72995027E+02 E0= -.72995027E+02  d E =-.274266E+00
       N       E                     dE             d eps       ncg     rms          rms(c)
DAV:   1    -0.721749158363E+02    0.82011E+00   -0.21127E+02   768   0.714E+01    0.732E+00
RMM:   2    -0.729429945857E+02   -0.76808E+00   -0.10354E+01  1007   0.137E+01    0.250E+00
RMM:   3    -0.731379974732E+02   -0.19500E+00   -0.26924E+00  1245   0.525E+00    0.243E+00
RMM:   4    -0.731456336773E+02   -0.76362E-02   -0.51758E-01  1202   0.248E+00    0.109E+00
RMM:   5    -0.731483427198E+02   -0.27090E-02   -0.12150E-01  1210   0.130E+00    0.266E-01
RMM:   6    -0.731515240893E+02   -0.31814E-02   -0.47215E-02  1314   0.768E-01    0.119E-01
RMM:   7    -0.731529921700E+02   -0.14681E-02   -0.16038E-02  1277   0.431E-01    0.600E-02
RMM:   8    -0.731535270521E+02   -0.53488E-03   -0.54585E-03  1325   0.250E-01    0.246E-02
RMM:   9    -0.731537005976E+02   -0.17355E-03   -0.18472E-03  1234   0.147E-01    0.131E-02
RMM:  10    -0.731537670586E+02   -0.66461E-04   -0.68271E-04   950   0.954E-02    0.687E-03
RMM:  11    -0.731537945346E+02   -0.27476E-04   -0.28959E-04   834   0.719E-02    0.252E-03
RMM:  12    -0.731538055131E+02   -0.10978E-04   -0.13279E-04   722   0.599E-02
  52 F= -.73153806E+02 E0= -.73153806E+02  d E =-.433045E+00
       N       E                     dE             d eps       ncg     rms          rms(c)
DAV:   1    -0.732113279084E+02   -0.57533E-01   -0.84618E+00   784   0.140E+01    0.122E+00
RMM:   2    -0.732346431537E+02   -0.23315E-01   -0.29381E-01  1001   0.246E+00    0.353E-01
RMM:   3    -0.732359103363E+02   -0.12672E-02   -0.40902E-02  1249   0.813E-01    0.296E-01
RMM:   4    -0.732359387765E+02   -0.28440E-04   -0.11795E-02  1180   0.352E-01    0.109E-01
RMM:   5    -0.732363175457E+02   -0.37877E-03   -0.41313E-03  1223   0.197E-01    0.501E-02
RMM:   6    -0.732364131107E+02   -0.95565E-04   -0.14443E-03  1198   0.121E-01    0.154E-02
RMM:   7    -0.732364544187E+02   -0.41308E-04   -0.49290E-04  1024   0.752E-02    0.828E-03
RMM:   8    -0.732364604735E+02   -0.60548E-05   -0.82818E-05   683   0.524E-02
  53 F= -.73236460E+02 E0= -.73236460E+02  d E =-.826550E-01
       N       E                     dE             d eps       ncg     rms          rms(c)
DAV:   1    -0.731705371883E+02    0.65917E-01   -0.74901E+01   768   0.418E+01    0.405E+00
RMM:   2    -0.734044349856E+02   -0.23390E+00   -0.29761E+00   992   0.755E+00    0.112E+00
RMM:   3    -0.734307804695E+02   -0.26345E-01   -0.54393E-01  1244   0.270E+00    0.103E+00
RMM:   4    -0.734337285298E+02   -0.29481E-02   -0.12662E-01  1207   0.121E+00    0.454E-01
RMM:   5    -0.734367149928E+02   -0.29865E-02   -0.37530E-02  1246   0.644E-01    0.170E-01
RMM:   6    -0.734377720990E+02   -0.10571E-02   -0.13409E-02  1290   0.388E-01    0.390E-02
RMM:   7    -0.734382608202E+02   -0.48872E-03   -0.50839E-03  1260   0.226E-01    0.275E-02
RMM:   8    -0.734384248394E+02   -0.16402E-03   -0.16868E-03  1194   0.133E-01    0.147E-02
RMM:   9    -0.734384791168E+02   -0.54277E-04   -0.67789E-04  1170   0.852E-02    0.417E-03
RMM:  10    -0.734384912502E+02   -0.12133E-04   -0.12509E-04   668   0.567E-02
  54 F= -.73438491E+02 E0= -.73438491E+02  d E =-.284686E+00
       N       E                     dE             d eps       ncg     rms          rms(c)
DAV:   1    -0.721407883358E+02    0.12977E+01   -0.28468E+02   768   0.819E+01    0.103E+01
RMM:   2    -0.733043940070E+02   -0.11636E+01   -0.14929E+01   967   0.159E+01    0.270E+00
RMM:   3    -0.735670987513E+02   -0.26270E+00   -0.40141E+00  1249   0.623E+00    0.286E+00
RMM:   4    -0.736139662048E+02   -0.46867E-01   -0.87043E-01  1228   0.290E+00    0.142E+00
RMM:   5    -0.736220406804E+02   -0.80745E-02   -0.16513E-01  1251   0.146E+00    0.445E-01
RMM:   6    -0.736274146392E+02   -0.53740E-02   -0.64347E-02  1298   0.857E-01    0.106E-01
RMM:   7    -0.736293208209E+02   -0.19062E-02   -0.20329E-02  1270   0.477E-01    0.715E-02
RMM:   8    -0.736300332041E+02   -0.71238E-03   -0.75293E-03  1314   0.290E-01    0.319E-02
RMM:   9    -0.736302958352E+02   -0.26263E-03   -0.28769E-03  1241   0.174E-01    0.139E-02
RMM:  10    -0.736304114917E+02   -0.11566E-03   -0.11830E-03  1039   0.111E-01    0.924E-03
RMM:  11    -0.736304512713E+02   -0.39780E-04   -0.41001E-04   785   0.784E-02    0.896E-03
RMM:  12    -0.736304675073E+02   -0.16236E-04   -0.18678E-04   686   0.659E-02
  55 F= -.73630468E+02 E0= -.73630468E+02  d E =-.476662E+00
       N       E                     dE             d eps       ncg     rms          rms(c)
DAV:   1    -0.736890082922E+02   -0.58557E-01   -0.19859E+01   784   0.214E+01    0.161E+00
RMM:   2    -0.737484097443E+02   -0.59401E-01   -0.73678E-01  1005   0.384E+00    0.531E-01
RMM:   3    -0.737550737287E+02   -0.66640E-02   -0.12018E-01  1256   0.134E+00    0.519E-01
RMM:   4    -0.737559329630E+02   -0.85923E-03   -0.34229E-02  1242   0.595E-01    0.257E-01
RMM:   5    -0.737569612607E+02   -0.10283E-02   -0.12753E-02  1241   0.351E-01    0.949E-02
RMM:   6    -0.737573748968E+02   -0.41364E-03   -0.50210E-03  1267   0.222E-01    0.213E-02
RMM:   7    -0.737575724860E+02   -0.19759E-03   -0.20830E-03  1185   0.140E-01    0.159E-02
RMM:   8    -0.737576449658E+02   -0.72480E-04   -0.75402E-04  1088   0.915E-02    0.904E-03
RMM:   9    -0.737576598468E+02   -0.14881E-04   -0.20152E-04   764   0.650E-02    0.503E-03
RMM:  10    -0.737576730479E+02   -0.13201E-04   -0.17583E-04   873   0.569E-02
  56 F= -.73757673E+02 E0= -.73757673E+02  d E =-.127206E+00
       N       E                     dE             d eps       ncg     rms          rms(c)
DAV:   1    -0.732577963096E+02    0.49986E+00   -0.17368E+02   768   0.636E+01    0.681E+00
RMM:   2    -0.739230719495E+02   -0.66528E+00   -0.83166E+00   986   0.121E+01    0.192E+00
RMM:   3    -0.740493844194E+02   -0.12631E+00   -0.19277E+00  1255   0.459E+00    0.218E+00
RMM:   4    -0.740671533659E+02   -0.17769E-01   -0.40936E-01  1251   0.211E+00    0.124E+00
RMM:   5    -0.740728824527E+02   -0.57291E-02   -0.10816E-01  1242   0.114E+00    0.446E-01
RMM:   6    -0.740771297432E+02   -0.42473E-02   -0.47558E-02  1291   0.723E-01    0.871E-02
RMM:   7    -0.740787564010E+02   -0.16267E-02   -0.17447E-02  1268   0.430E-01    0.481E-02
RMM:   8    -0.740794481303E+02   -0.69173E-03   -0.72641E-03  1312   0.280E-01    0.348E-02
RMM:   9    -0.740797465651E+02   -0.29843E-03   -0.31752E-03  1237   0.183E-01    0.274E-02
RMM:  10    -0.740798790229E+02   -0.13246E-03   -0.15097E-03  1211   0.124E-01    0.144E-02
RMM:  11    -0.740799372688E+02   -0.58246E-04   -0.62815E-04   889   0.874E-02    0.101E-02
RMM:  12    -0.740799574148E+02   -0.20146E-04   -0.23031E-04   728   0.692E-02    0.854E-03
RMM:  13    -0.740799667966E+02   -0.93818E-05   -0.13398E-04   736   0.619E-02
  57 F= -.74079967E+02 E0= -.74079967E+02  d E =-.449499E+00
       N       E                     dE             d eps       ncg     rms          rms(c)
DAV:   1    -0.694088874390E+02    0.46711E+01   -0.63686E+02   768   0.124E+02    0.238E+01
RMM:   2    -0.729640366062E+02   -0.35551E+01   -0.44636E+01   976   0.262E+01    0.631E+00
RMM:   3    -0.739480884095E+02   -0.98405E+00   -0.12910E+01  1263   0.102E+01    0.763E+00
RMM:   4    -0.742451579953E+02   -0.29707E+00   -0.38361E+00  1246   0.533E+00    0.421E+00
RMM:   5    -0.742838497681E+02   -0.38692E-01   -0.69159E-01  1269   0.280E+00    0.200E+00
RMM:   6    -0.742979267088E+02   -0.14077E-01   -0.22287E-01  1279   0.173E+00    0.132E-01
RMM:   7    -0.743056287294E+02   -0.77020E-02   -0.78210E-02  1290   0.101E+00    0.152E-01
RMM:   8    -0.743087642793E+02   -0.31355E-02   -0.32036E-02  1311   0.643E-01    0.110E-01
RMM:   9    -0.743101832832E+02   -0.14190E-02   -0.14647E-02  1290   0.423E-01    0.116E-01
RMM:  10    -0.743110893987E+02   -0.90612E-03   -0.81858E-03  1322   0.303E-01    0.150E-01
RMM:  11    -0.743112510421E+02   -0.16164E-03   -0.37371E-03  1239   0.213E-01    0.840E-02
RMM:  12    -0.743115840991E+02   -0.33306E-03   -0.29627E-03  1123   0.193E-01    0.120E-01
RMM:  13    -0.743115794455E+02    0.46535E-05   -0.12766E-03  1181   0.129E-01    0.775E-02
RMM:  14    -0.743115758445E+02    0.36010E-05   -0.77533E-04  1078   0.961E-02    0.380E-02
RMM:  15    -0.743115906260E+02   -0.14781E-04   -0.43073E-04  1040   0.789E-02    0.632E-03
RMM:  16    -0.743116020280E+02   -0.11402E-04   -0.14273E-04   726   0.612E-02
  58 F= -.74311602E+02 E0= -.74311602E+02  d E =-.681135E+00
       N       E                     dE             d eps       ncg     rms          rms(c)
DAV:   1    -0.741767146236E+02    0.13488E+00   -0.36961E+01   768   0.299E+01    0.201E+00
RMM:   2    -0.743058895092E+02   -0.12917E+00   -0.15370E+00   996   0.538E+00    0.663E-01
RMM:   3    -0.743195866167E+02   -0.13697E-01   -0.26643E-01  1247   0.189E+00    0.589E-01
RMM:   4    -0.743202591111E+02   -0.67249E-03   -0.72589E-02  1228   0.883E-01    0.261E-01
RMM:   5    -0.743221829575E+02   -0.19238E-02   -0.25115E-02  1242   0.512E-01    0.116E-01
RMM:   6    -0.743230318937E+02   -0.84894E-03   -0.11118E-02  1287   0.339E-01    0.361E-02
RMM:   7    -0.743234849292E+02   -0.45304E-03   -0.49973E-03  1244   0.221E-01    0.199E-02
RMM:   8    -0.743237070742E+02   -0.22214E-03   -0.23566E-03  1208   0.152E-01    0.112E-02
RMM:   9    -0.743238060400E+02   -0.98966E-04   -0.10732E-03  1118   0.106E-01    0.752E-03
RMM:  10    -0.743238502331E+02   -0.44193E-04   -0.48561E-04   900   0.789E-02    0.259E-03
RMM:  11    -0.743238615453E+02   -0.11312E-04   -0.14495E-04   703   0.640E-02
  59 F= -.74323862E+02 E0= -.74323862E+02  d E =-.693394E+00
       N       E                     dE             d eps       ncg     rms          rms(c)
DAV:   1    -0.744317418049E+02   -0.10789E+00   -0.17839E+01   768   0.210E+01    0.174E+00
RMM:   2    -0.744694312056E+02   -0.37689E-01   -0.65255E-01  1008   0.361E+00    0.653E-01
RMM:   3    -0.744715935705E+02   -0.21624E-02   -0.10451E-01  1241   0.124E+00    0.415E-01
RMM:   4    -0.744717962712E+02   -0.20270E-03   -0.30451E-02  1243   0.558E-01    0.148E-01
RMM:   5    -0.744727884019E+02   -0.99213E-03   -0.12481E-02  1249   0.343E-01    0.736E-02
RMM:   6    -0.744732540631E+02   -0.46566E-03   -0.53491E-03  1274   0.230E-01    0.292E-02
RMM:   7    -0.744734574768E+02   -0.20341E-03   -0.23201E-03  1202   0.154E-01    0.155E-02
RMM:   8    -0.744735665209E+02   -0.10904E-03   -0.11879E-03  1137   0.111E-01    0.448E-03
RMM:   9    -0.744736116368E+02   -0.45116E-04   -0.48621E-04   972   0.798E-02    0.285E-03
RMM:  10    -0.744736289278E+02   -0.17291E-04   -0.20490E-04   787   0.642E-02    0.202E-03
RMM:  11    -0.744736324387E+02   -0.35109E-05   -0.69768E-05   685   0.569E-02
  60 F= -.74473632E+02 E0= -.74473632E+02  d E =-.149771E+00
       N       E                     dE             d eps       ncg     rms          rms(c)
DAV:   1    -0.741684876089E+02    0.30514E+00   -0.15912E+02   768   0.635E+01    0.680E+00
RMM:   2    -0.745885477459E+02   -0.42006E+00   -0.70306E+00  1007   0.113E+01    0.195E+00
RMM:   3    -0.746605979728E+02   -0.72050E-01   -0.14655E+00  1242   0.413E+00    0.141E+00
RMM:   4    -0.746693981779E+02   -0.88002E-02   -0.34529E-01  1251   0.201E+00    0.588E-01
RMM:   5    -0.746766885118E+02   -0.72903E-02   -0.10419E-01  1259   0.111E+00    0.287E-01
RMM:   6    -0.746804381232E+02   -0.37496E-02   -0.45512E-02  1296   0.726E-01    0.927E-02
RMM:   7    -0.746820655482E+02   -0.16274E-02   -0.18156E-02  1275   0.451E-01    0.391E-02
RMM:   8    -0.746829505028E+02   -0.88495E-03   -0.94218E-03  1294   0.308E-01    0.161E-02
RMM:   9    -0.746833290618E+02   -0.37856E-03   -0.39493E-03  1222   0.207E-01    0.105E-02
RMM:  10    -0.746835281152E+02   -0.19905E-03   -0.21175E-03  1189   0.150E-01    0.775E-03
RMM:  11    -0.746836261502E+02   -0.98035E-04   -0.10222E-03  1099   0.109E-01    0.891E-03
RMM:  12    -0.746836727557E+02   -0.46605E-04   -0.46633E-04   944   0.823E-02    0.171E-02
RMM:  13    -0.746836857644E+02   -0.13009E-04   -0.21630E-04   858   0.689E-02    0.362E-03
RMM:  14    -0.746836990102E+02   -0.13246E-04   -0.17351E-04   874   0.612E-02
  61 F= -.74683699E+02 E0= -.74683699E+02  d E =-.359837E+00
       N       E                     dE             d eps       ncg     rms          rms(c)
DAV:   1    -0.747389530488E+02   -0.55267E-01   -0.37712E+01   768   0.311E+01    0.185E+00
RMM:   2    -0.748359311777E+02   -0.96978E-01   -0.13320E+00  1020   0.512E+00    0.947E-01
RMM:   3    -0.748561983437E+02   -0.20267E-01   -0.29608E-01  1250   0.193E+00    0.712E-01
RMM:   4    -0.748571372866E+02   -0.93894E-03   -0.68453E-02  1233   0.915E-01    0.270E-01
RMM:   5    -0.748586670719E+02   -0.15298E-02   -0.23598E-02  1263   0.529E-01    0.978E-02
RMM:   6    -0.748595137936E+02   -0.84672E-03   -0.10604E-02  1286   0.344E-01    0.554E-02
RMM:   7    -0.748599075049E+02   -0.39371E-03   -0.47304E-03  1256   0.224E-01    0.307E-02
RMM:   8    -0.748601329063E+02   -0.22540E-03   -0.24733E-03  1198   0.155E-01    0.889E-03
RMM:   9    -0.748602248440E+02   -0.91938E-04   -0.97247E-04  1140   0.105E-01    0.562E-03
RMM:  10    -0.748602681656E+02   -0.43322E-04   -0.46778E-04   954   0.776E-02    0.469E-03
RMM:  11    -0.748602822985E+02   -0.14133E-04   -0.17070E-04   792   0.625E-02
  62 F= -.74860282E+02 E0= -.74860282E+02  d E =-.176583E+00
       N       E                     dE             d eps       ncg     rms          rms(c)
DAV:   1    -0.744917240192E+02    0.36854E+00   -0.11715E+02   768   0.547E+01    0.340E+00
RMM:   2    -0.748722803897E+02   -0.38056E+00   -0.50072E+00  1013   0.942E+00    0.181E+00
RMM:   3    -0.749727986745E+02   -0.10052E+00   -0.13556E+00  1249   0.377E+00    0.150E+00
RMM:   4    -0.749780808938E+02   -0.52822E-02   -0.25901E-01  1228   0.177E+00    0.650E-01
RMM:   5    -0.749811551478E+02   -0.30743E-02   -0.71515E-02  1225   0.980E-01    0.183E-01
RMM:   6    -0.749836746237E+02   -0.25195E-02   -0.33511E-02  1289   0.630E-01    0.113E-01
RMM:   7    -0.749849277194E+02   -0.12531E-02   -0.14566E-02  1268   0.394E-01    0.720E-02
RMM:   8    -0.749854956146E+02   -0.56790E-03   -0.65641E-03  1267   0.260E-01    0.180E-02
RMM:   9    -0.749857464072E+02   -0.25079E-03   -0.26784E-03  1222   0.169E-01    0.109E-02
RMM:  10    -0.749858826694E+02   -0.13626E-03   -0.14391E-03  1140   0.121E-01    0.949E-03
RMM:  11    -0.749859397556E+02   -0.57086E-04   -0.60455E-04  1085   0.876E-02    0.700E-03
RMM:  12    -0.749859596479E+02   -0.19892E-04   -0.24156E-04   814   0.673E-02    0.365E-03
RMM:  13    -0.749859695559E+02   -0.99080E-05   -0.13401E-04   763   0.593E-02
  63 F= -.74985970E+02 E0= -.74985970E+02  d E =-.302271E+00
       N       E                     dE             d eps       ncg     rms          rms(c)
DAV:   1    -0.750036542623E+02   -0.17695E-01   -0.30210E+01   768   0.272E+01    0.179E+00
RMM:   2    -0.750742121860E+02   -0.70558E-01   -0.87301E-01  1019   0.416E+00    0.478E-01
RMM:   3    -0.750872467877E+02   -0.13035E-01   -0.17835E-01  1240   0.149E+00    0.326E-01
RMM:   4    -0.750887399302E+02   -0.14931E-02   -0.39880E-02  1287   0.702E-01    0.187E-01
RMM:   5    -0.750896121652E+02   -0.87224E-03   -0.13835E-02  1272   0.406E-01    0.875E-02
RMM:   6    -0.750901790461E+02   -0.56688E-03   -0.64505E-03  1289   0.264E-01    0.289E-02
RMM:   7    -0.750904148035E+02   -0.23576E-03   -0.24109E-03  1221   0.164E-01    0.894E-03
RMM:   8    -0.750905180334E+02   -0.10323E-03   -0.10803E-03  1149   0.112E-01    0.684E-03
RMM:   9    -0.750905596167E+02   -0.41583E-04   -0.44709E-04   963   0.810E-02    0.243E-03
RMM:  10    -0.750905726689E+02   -0.13052E-04   -0.15754E-04   762   0.650E-02
  64 F= -.75090573E+02 E0= -.75090573E+02  d E =-.104603E+00
       N       E                     dE             d eps       ncg     rms          rms(c)
DAV:   1    -0.747650456005E+02    0.32551E+00   -0.10168E+02   768   0.502E+01    0.353E+00
RMM:   2    -0.750680531464E+02   -0.30301E+00   -0.36804E+00  1019   0.803E+00    0.915E-01
RMM:   3    -0.751482600125E+02   -0.80207E-01   -0.97097E-01  1246   0.301E+00    0.651E-01
RMM:   4    -0.751574321629E+02   -0.91722E-02   -0.18324E-01  1289   0.143E+00    0.410E-01
RMM:   5    -0.751587581785E+02   -0.13260E-02   -0.42876E-02  1266   0.769E-01    0.165E-01
RMM:   6    -0.751603960045E+02   -0.16378E-02   -0.20227E-02  1318   0.496E-01    0.570E-02
RMM:   7    -0.751611407258E+02   -0.74472E-03   -0.76911E-03  1263   0.300E-01    0.192E-02
RMM:   8    -0.751614492081E+02   -0.30848E-03   -0.31945E-03  1290   0.197E-01    0.887E-03
RMM:   9    -0.751616027058E+02   -0.15350E-03   -0.16131E-03  1197   0.136E-01    0.587E-03
RMM:  10    -0.751616701540E+02   -0.67448E-04   -0.71267E-04  1071   0.972E-02    0.327E-03
RMM:  11    -0.751617000930E+02   -0.29939E-04   -0.32595E-04   913   0.744E-02    0.206E-03
RMM:  12    -0.751617103490E+02   -0.10256E-04   -0.12860E-04   751   0.623E-02
  65 F= -.75161710E+02 E0= -.75161710E+02  d E =-.175741E+00
       N       E                     dE             d eps       ncg     rms          rms(c)
DAV:   1    -0.751466466839E+02    0.15053E-01   -0.22060E+01   768   0.230E+01    0.265E+00
RMM:   2    -0.752045737606E+02   -0.57927E-01   -0.76272E-01   996   0.397E+00    0.537E-01
RMM:   3    -0.752076381186E+02   -0.30644E-02   -0.13021E-01  1246   0.136E+00    0.378E-01
RMM:   4    -0.752078458728E+02   -0.20775E-03   -0.35651E-02  1229   0.644E-01    0.159E-01
RMM:   5    -0.752087710558E+02   -0.92518E-03   -0.13076E-02  1258   0.376E-01    0.852E-02
RMM:   6    -0.752093249728E+02   -0.55392E-03   -0.62444E-03  1274   0.245E-01    0.314E-02
RMM:   7    -0.752095397024E+02   -0.21473E-03   -0.22716E-03  1194   0.153E-01    0.115E-02
RMM:   8    -0.752096445614E+02   -0.10486E-03   -0.11211E-03  1073   0.106E-01    0.625E-03
RMM:   9    -0.752096867791E+02   -0.42218E-04   -0.45496E-04   926   0.774E-02    0.330E-03
RMM:  10    -0.752097043725E+02   -0.17593E-04   -0.20802E-04   798   0.626E-02    0.140E-03
RMM:  11    -0.752097074729E+02   -0.31004E-05   -0.62505E-05   649   0.552E-02
  66 F= -.75209707E+02 E0= -.75209707E+02  d E =-.479971E-01
       N       E                     dE             d eps       ncg     rms          rms(c)
DAV:   1    -0.752073749695E+02    0.23294E-02   -0.16753E+00   904   0.632E+00    0.682E-01
RMM:   2    -0.752115320833E+02   -0.41571E-02   -0.55564E-02   999   0.109E+00    0.142E-01
RMM:   3    -0.752116420488E+02   -0.10997E-03   -0.84983E-03  1254   0.372E-01    0.921E-02
RMM:   4    -0.752116786286E+02   -0.36580E-04   -0.27649E-03  1219   0.173E-01    0.429E-02
RMM:   5    -0.752117711043E+02   -0.92476E-04   -0.12050E-03  1180   0.110E-01    0.236E-02
RMM:   6    -0.752118113008E+02   -0.40197E-04   -0.45400E-04   874   0.753E-02    0.591E-03
RMM:   7    -0.752118217920E+02   -0.10491E-04   -0.13170E-04   749   0.586E-02
  67 F= -.75211822E+02 E0= -.75211822E+02  d E =-.501114E-01
       N       E                     dE             d eps       ncg     rms          rms(c)
DAV:   1    -0.752267687419E+02   -0.14957E-01   -0.86913E+00   768   0.146E+01    0.899E-01
RMM:   2    -0.752442444284E+02   -0.17476E-01   -0.26616E-01  1007   0.236E+00    0.414E-01
RMM:   3    -0.752461235212E+02   -0.18791E-02   -0.45716E-02  1247   0.855E-01    0.269E-01
RMM:   4    -0.752462727395E+02   -0.14922E-03   -0.12658E-02  1249   0.397E-01    0.113E-01
RMM:   5    -0.752466343818E+02   -0.36164E-03   -0.49793E-03  1258   0.243E-01    0.541E-02
RMM:   6    -0.752468380728E+02   -0.20369E-03   -0.24219E-03  1265   0.166E-01    0.223E-02
RMM:   7    -0.752469343890E+02   -0.96316E-04   -0.11394E-03  1170   0.114E-01    0.865E-03
RMM:   8    -0.752469886605E+02   -0.54272E-04   -0.58166E-04  1030   0.833E-02    0.542E-03
RMM:   9    -0.752470049788E+02   -0.16318E-04   -0.18541E-04   756   0.639E-02
  68 F= -.75247005E+02 E0= -.75247005E+02  d E =-.351832E-01
       N       E                     dE             d eps       ncg     rms          rms(c)
DAV:   1    -0.751430401488E+02    0.10395E+00   -0.44585E+01   768   0.329E+01    0.198E+00
RMM:   2    -0.752474859771E+02   -0.10445E+00   -0.15226E+00  1005   0.545E+00    0.994E-01
RMM:   3    -0.752658930569E+02   -0.18407E-01   -0.32509E-01  1249   0.209E+00    0.719E-01
RMM:   4    -0.752664750729E+02   -0.58202E-03   -0.72973E-02  1249   0.981E-01    0.310E-01
RMM:   5    -0.752679833022E+02   -0.15082E-02   -0.24850E-02  1273   0.573E-01    0.120E-01
RMM:   6    -0.752689408485E+02   -0.95755E-03   -0.12304E-02  1293   0.384E-01    0.618E-02
RMM:   7    -0.752694380911E+02   -0.49724E-03   -0.57994E-03  1257   0.256E-01    0.257E-02
RMM:   8    -0.752697452198E+02   -0.30713E-03   -0.32201E-03  1192   0.180E-01    0.105E-02
RMM:   9    -0.752698842455E+02   -0.13903E-03   -0.14160E-03  1161   0.125E-01    0.600E-03
RMM:  10    -0.752699558973E+02   -0.71652E-04   -0.75333E-04  1050   0.921E-02    0.403E-03
RMM:  11    -0.752699835941E+02   -0.27697E-04   -0.30172E-04   845   0.713E-02    0.171E-03
RMM:  12    -0.752699936943E+02   -0.10100E-04   -0.13537E-04   728   0.617E-02
  69 F= -.75269994E+02 E0= -.75269994E+02  d E =-.581719E-01
       N       E                     dE             d eps       ncg     rms          rms(c)
DAV:   1    -0.752750455186E+02   -0.50619E-02   -0.52267E+00   768   0.112E+01    0.681E-01
RMM:   2    -0.752865397645E+02   -0.11494E-01   -0.14673E-01  1013   0.177E+00    0.251E-01
RMM:   3    -0.752874289026E+02   -0.88914E-03   -0.21980E-02  1250   0.626E-01    0.169E-01
RMM:   4    -0.752875564304E+02   -0.12753E-03   -0.76853E-03  1261   0.289E-01    0.569E-02
RMM:   5    -0.752878075394E+02   -0.25111E-03   -0.31466E-03  1226   0.184E-01    0.309E-02
RMM:   6    -0.752879361437E+02   -0.12860E-03   -0.14827E-03  1191   0.128E-01    0.922E-03
RMM:   7    -0.752879947279E+02   -0.58584E-04   -0.62433E-04  1074   0.889E-02    0.550E-03
RMM:   8    -0.752880162633E+02   -0.21535E-04   -0.24692E-04   838   0.677E-02    0.257E-03
RMM:   9    -0.752880236096E+02   -0.73463E-05   -0.10505E-04   728   0.583E-02
  70 F= -.75288024E+02 E0= -.75288024E+02  d E =-.180299E-01
       N       E                     dE             d eps       ncg     rms          rms(c)
DAV:   1    -0.751810191667E+02    0.10700E+00   -0.46257E+01   768   0.335E+01    0.231E+00
RMM:   2    -0.752915904385E+02   -0.11057E+00   -0.14235E+00  1013   0.535E+00    0.752E-01
RMM:   3    -0.753054501780E+02   -0.13860E-01   -0.25562E-01  1253   0.194E+00    0.510E-01
RMM:   4    -0.753070365223E+02   -0.15863E-02   -0.72401E-02  1263   0.948E-01    0.193E-01
RMM:   5    -0.753088996469E+02   -0.18631E-02   -0.24686E-02  1254   0.549E-01    0.101E-01
RMM:   6    -0.753099032554E+02   -0.10036E-02   -0.11676E-02  1297   0.371E-01    0.273E-02
RMM:   7    -0.753103810720E+02   -0.47782E-03   -0.50336E-03  1250   0.240E-01    0.161E-02
RMM:   8    -0.753106303559E+02   -0.24928E-03   -0.26239E-03  1190   0.167E-01    0.746E-03
RMM:   9    -0.753107479044E+02   -0.11755E-03   -0.12209E-03  1163   0.117E-01    0.445E-03
RMM:  10    -0.753108061576E+02   -0.58253E-04   -0.61943E-04  1017   0.863E-02    0.240E-03
RMM:  11    -0.753108280246E+02   -0.21867E-04   -0.24297E-04   803   0.673E-02    0.139E-03
RMM:  12    -0.753108344087E+02   -0.63840E-05   -0.97169E-05   700   0.591E-02
  71 F= -.75310834E+02 E0= -.75310834E+02  d E =-.408407E-01
       N       E                     dE             d eps       ncg     rms          rms(c)
DAV:   1    -0.753312657055E+02   -0.20438E-01   -0.31575E+00   800   0.879E+00    0.672E-01
RMM:   2    -0.753354987121E+02   -0.42330E-02   -0.90963E-02  1028   0.141E+00    0.252E-01
RMM:   3    -0.753356418477E+02   -0.14314E-03   -0.15566E-02  1237   0.508E-01    0.169E-01
RMM:   4    -0.753356037797E+02    0.38068E-04   -0.51629E-03  1236   0.241E-01    0.651E-02
RMM:   5    -0.753357666131E+02   -0.16283E-03   -0.21902E-03  1202   0.156E-01    0.316E-02
RMM:   6    -0.753358624005E+02   -0.95787E-04   -0.10594E-03  1170   0.108E-01    0.981E-03
RMM:   7    -0.753358961558E+02   -0.33755E-04   -0.35519E-04   950   0.749E-02    0.427E-03
RMM:   8    -0.753359042185E+02   -0.80627E-05   -0.11090E-04   714   0.606E-02
  72 F= -.75335904E+02 E0= -.75335904E+02  d E =-.250698E-01
       N       E                     dE             d eps       ncg     rms          rms(c)
DAV:   1    -0.753293719582E+02    0.65242E-02   -0.28409E+01   768   0.264E+01    0.207E+00
RMM:   2    -0.753698359162E+02   -0.40464E-01   -0.85763E-01  1026   0.425E+00    0.771E-01
RMM:   3    -0.753726237747E+02   -0.27879E-02   -0.15525E-01  1234   0.153E+00    0.526E-01
RMM:   4    -0.753723093585E+02    0.31442E-03   -0.46357E-02  1236   0.761E-01    0.204E-01
RMM:   5    -0.753735213149E+02   -0.12120E-02   -0.17534E-02  1256   0.456E-01    0.947E-02
RMM:   6    -0.753742786672E+02   -0.75735E-03   -0.85052E-03  1316   0.304E-01    0.298E-02
RMM:   7    -0.753746118680E+02   -0.33320E-03   -0.34599E-03  1228   0.197E-01    0.140E-02
RMM:   8    -0.753747740955E+02   -0.16223E-03   -0.17178E-03  1193   0.137E-01    0.763E-03
RMM:   9    -0.753748486216E+02   -0.74526E-04   -0.79906E-04  1138   0.977E-02    0.287E-03
RMM:  10    -0.753748815798E+02   -0.32958E-04   -0.35784E-04   903   0.728E-02    0.196E-03
RMM:  11    -0.753748887315E+02   -0.71517E-05   -0.10002E-04   695   0.603E-02
  73 F= -.75374889E+02 E0= -.75374889E+02  d E =-.640543E-01
       N       E                     dE             d eps       ncg     rms          rms(c)
DAV:   1    -0.753898121833E+02   -0.14931E-01   -0.75436E+00   768   0.136E+01    0.180E+00
RMM:   2    -0.753995101750E+02   -0.96980E-02   -0.26457E-01  1005   0.239E+00    0.481E-01
RMM:   3    -0.753975283650E+02    0.19818E-02   -0.41122E-02  1219   0.822E-01    0.260E-01
RMM:   4    -0.753971360746E+02    0.39229E-03   -0.13470E-02  1230   0.378E-01    0.116E-01
RMM:   5    -0.753975006646E+02   -0.36459E-03   -0.54880E-03  1244   0.241E-01    0.656E-02
RMM:   6    -0.753977450847E+02   -0.24442E-03   -0.27086E-03  1214   0.164E-01    0.223E-02
RMM:   7    -0.753978445986E+02   -0.99514E-04   -0.10636E-03  1201   0.111E-01    0.103E-02
RMM:   8    -0.753978849854E+02   -0.40387E-04   -0.45316E-04   961   0.799E-02    0.408E-03
RMM:   9    -0.753978994583E+02   -0.14473E-04   -0.17710E-04   808   0.644E-02
  74 F= -.75397899E+02 E0= -.75397899E+02  d E =-.230107E-01
       N       E                     dE             d eps       ncg     rms          rms(c)
DAV:   1    -0.753983509446E+02   -0.46596E-03   -0.54975E-01  1000   0.367E+00    0.476E-01
RMM:   2    -0.753990605433E+02   -0.70960E-03   -0.19060E-02  1002   0.644E-01    0.131E-01
RMM:   3    -0.753989546122E+02    0.10593E-03   -0.32277E-03  1220   0.232E-01    0.710E-02
RMM:   4    -0.753989381934E+02    0.16419E-04   -0.10919E-03  1164   0.112E-01    0.305E-02
RMM:   5    -0.753989621494E+02   -0.23956E-04   -0.36983E-04  1005   0.738E-02    0.156E-02
RMM:   6    -0.753989707950E+02   -0.86457E-05   -0.11454E-04   693   0.572E-02
  75 F= -.75398971E+02 E0= -.75398971E+02  d E =-.240821E-01
       N       E                     dE             d eps       ncg     rms          rms(c)
DAV:   1    -0.753989612972E+02    0.85212E-06   -0.82027E+00   768   0.142E+01    0.662E-01
RMM:   2    -0.754134495262E+02   -0.14488E-01   -0.19951E-01  1024   0.206E+00    0.262E-01
RMM:   3    -0.754155679847E+02   -0.21185E-02   -0.32344E-02  1248   0.722E-01    0.167E-01
RMM:   4    -0.754159167700E+02   -0.34879E-03   -0.90706E-03  1288   0.325E-01    0.876E-02
RMM:   5    -0.754162613618E+02   -0.34459E-03   -0.40939E-03  1259   0.208E-01    0.456E-02
RMM:   6    -0.754164291407E+02   -0.16778E-03   -0.18204E-03  1237   0.142E-01    0.155E-02
RMM:   7    -0.754165016394E+02   -0.72499E-04   -0.76290E-04  1119   0.968E-02    0.616E-03
RMM:   8    -0.754165299628E+02   -0.28323E-04   -0.31336E-04   891   0.724E-02    0.316E-03
RMM:   9    -0.754165351078E+02   -0.51450E-05   -0.81247E-05   684   0.604E-02
[...]
RMM:  11    -0.755288986602E+02   -0.64161E-04   -0.67877E-04  1050   0.934E-02    0.185E-03
RMM:  12    -0.755289282652E+02   -0.29605E-04   -0.32907E-04   894   0.748E-02    0.748E-04
RMM:  13    -0.755289402958E+02   -0.12031E-04   -0.15516E-04   777   0.649E-02
  84 F= -.75528940E+02 E0= -.75528940E+02  d E =-.252876E-01
       N       E                     dE             d eps       ncg     rms          rms(c)
DAV:   1    -0.755006075431E+02    0.28321E-01   -0.14798E+01   768   0.190E+01    0.121E+00
RMM:   2    -0.755317617160E+02   -0.31154E-01   -0.46990E-01  1030   0.310E+00    0.494E-01
RMM:   3    -0.755352518998E+02   -0.34902E-02   -0.75715E-02  1244   0.106E+00    0.366E-01
RMM:   4    -0.755350299951E+02    0.22190E-03   -0.22848E-02  1222   0.510E-01    0.143E-01
RMM:   5    -0.755357020644E+02   -0.67207E-03   -0.94305E-03  1238   0.318E-01    0.563E-02
RMM:   6    -0.755360466000E+02   -0.34454E-03   -0.44986E-03  1274   0.222E-01    0.182E-02
RMM:   7    -0.755362384020E+02   -0.19180E-03   -0.21586E-03  1210   0.154E-01    0.980E-03
RMM:   8    -0.755363513011E+02   -0.11290E-03   -0.12106E-03  1154   0.113E-01    0.584E-03
RMM:   9    -0.755363941394E+02   -0.42838E-04   -0.45811E-04   964   0.813E-02    0.367E-03
RMM:  10    -0.755364137755E+02   -0.19636E-04   -0.23448E-04   841   0.672E-02    0.187E-03
RMM:  11    -0.755364183531E+02   -0.45776E-05   -0.81555E-05   698   0.593E-02
  85 F= -.75536418E+02 E0= -.75536418E+02  d E =-.327656E-01
       N       E                     dE             d eps       ncg     rms          rms(c)
DAV:   1    -0.755338324578E+02    0.25813E-02   -0.48075E+00   768   0.106E+01    0.987E-01
RMM:   2    -0.755464380197E+02   -0.12606E-01   -0.20532E-01   989   0.193E+00    0.449E-01
RMM:   3    -0.755458662807E+02    0.57174E-03   -0.31006E-02  1231   0.665E-01    0.324E-01
RMM:   4    -0.755456863914E+02    0.17989E-03   -0.89792E-03  1203   0.302E-01    0.107E-01
RMM:   5    -0.755459062092E+02   -0.21982E-03   -0.33353E-03  1187   0.174E-01    0.414E-02
RMM:   6    -0.755460122341E+02   -0.10602E-03   -0.13576E-03  1148   0.114E-01    0.210E-02
RMM:   7    -0.755460561069E+02   -0.43873E-04   -0.56384E-04   973   0.788E-02    0.418E-03
RMM:   8    -0.755460772261E+02   -0.21119E-04   -0.25263E-04   835   0.609E-02    0.845E-03
RMM:   9    -0.755460799341E+02   -0.27081E-05   -0.59375E-05   623   0.512E-02
  86 F= -.75546080E+02 E0= -.75546080E+02  d E =-.966158E-02
       N       E                     dE             d eps       ncg     rms          rms(c)
DAV:   1    -0.755458427770E+02    0.23445E-03   -0.18551E-01   872   0.207E+00    0.199E-01
RMM:   2    -0.755463714154E+02   -0.52864E-03   -0.84180E-03   997   0.389E-01    0.855E-02
RMM:   3    -0.755463748126E+02   -0.33972E-05   -0.15085E-03  1230   0.146E-01    0.567E-02
RMM:   4    -0.755463847159E+02   -0.99032E-05   -0.51282E-04  1049   0.723E-02    0.200E-02
RMM:   5    -0.755463843480E+02    0.36789E-06   -0.45887E-05   551   0.484E-02
  87 F= -.75546384E+02 E0= -.75546384E+02  d E =-.996599E-02
       N       E                     dE             d eps       ncg     rms          rms(c)
DAV:   1    -0.755477381964E+02   -0.13535E-02   -0.23191E+00   784   0.731E+00    0.468E-01
RMM:   2    -0.755550393681E+02   -0.73012E-02   -0.85566E-02  1016   0.125E+00    0.160E-01
RMM:   3    -0.755557576503E+02   -0.71828E-03   -0.13769E-02  1241   0.426E-01    0.139E-01
RMM:   4    -0.755558294563E+02   -0.71806E-04   -0.41474E-03  1194   0.194E-01    0.597E-02
RMM:   5    -0.755559574395E+02   -0.12798E-03   -0.16422E-03  1171   0.119E-01    0.236E-02
RMM:   6    -0.755560031565E+02   -0.45717E-04   -0.63290E-04  1016   0.795E-02    0.708E-03
RMM:   7    -0.755560174244E+02   -0.14268E-04   -0.18804E-04   771   0.593E-02
  88 F= -.75556017E+02 E0= -.75556017E+02  d E =-.963308E-02
       N       E                     dE             d eps       ncg     rms          rms(c)
DAV:   1    -0.755023062292E+02    0.53697E-01   -0.20782E+01   768   0.219E+01    0.148E+00
RMM:   2    -0.755694244898E+02   -0.67118E-01   -0.78638E-01  1013   0.376E+00    0.485E-01
RMM:   3    -0.755773282799E+02   -0.79038E-02   -0.13422E-01  1247   0.129E+00    0.437E-01
RMM:   4    -0.755779520610E+02   -0.62378E-03   -0.36607E-02  1239   0.599E-01    0.199E-01
RMM:   5    -0.755789212159E+02   -0.96915E-03   -0.13307E-02  1218   0.346E-01    0.727E-02
RMM:   6    -0.755793111849E+02   -0.38997E-03   -0.53217E-03  1256   0.226E-01    0.230E-02
RMM:   7    -0.755795287006E+02   -0.21752E-03   -0.24573E-03  1156   0.151E-01    0.101E-02
RMM:   8    -0.755796234392E+02   -0.94739E-04   -0.10317E-03  1111   0.105E-01    0.517E-03
RMM:   9    -0.755796605346E+02   -0.37095E-04   -0.42916E-04   929   0.770E-02    0.244E-03
RMM:  10    -0.755796798087E+02   -0.19274E-04   -0.23326E-04   828   0.642E-02    0.108E-03
RMM:  11    -0.755796823370E+02   -0.25283E-05   -0.57802E-05   658   0.559E-02
  89 F= -.75579682E+02 E0= -.75579682E+02  d E =-.332980E-01
       N       E                     dE             d eps       ncg     rms          rms(c)
DAV:   1    -0.752482785353E+02    0.33140E+00   -0.81749E+01   768   0.437E+01    0.341E+00
RMM:   2    -0.755572481079E+02   -0.30897E+00   -0.35948E+00  1000   0.765E+00    0.103E+00
RMM:   3    -0.755965818457E+02   -0.39334E-01   -0.71180E-01  1250   0.275E+00    0.101E+00
RMM:   4    -0.756008516931E+02   -0.42698E-02   -0.15736E-01  1243   0.126E+00    0.532E-01
RMM:   5    -0.756034001792E+02   -0.25485E-02   -0.47455E-02  1222   0.691E-01    0.160E-01
RMM:   6    -0.756049157806E+02   -0.15156E-02   -0.19406E-02  1270   0.435E-01    0.538E-02
RMM:   7    -0.756056568218E+02   -0.74104E-03   -0.84306E-03  1233   0.276E-01    0.240E-02
RMM:   8    -0.756059471406E+02   -0.29032E-03   -0.31322E-03  1228   0.182E-01    0.853E-03
RMM:   9    -0.756060851931E+02   -0.13805E-03   -0.15172E-03  1159   0.127E-01    0.630E-03
RMM:  10    -0.756061554265E+02   -0.70233E-04   -0.76409E-04  1034   0.941E-02    0.322E-03
RMM:  11    -0.756061833892E+02   -0.27963E-04   -0.31439E-04   868   0.731E-02    0.267E-03
RMM:  12    -0.756061946100E+02   -0.11221E-04   -0.14866E-04   768   0.634E-02
  90 F= -.75606195E+02 E0= -.75606195E+02  d E =-.598103E-01
       N       E                     dE             d eps       ncg     rms          rms(c)
DAV:   1    -0.736743391137E+02    0.19318E+01   -0.30778E+02   768   0.856E+01    0.102E+01
RMM:   2    -0.751732825723E+02   -0.14989E+01   -0.17496E+01   977   0.161E+01    0.269E+00
RMM:   3    -0.755085905276E+02   -0.33531E+00   -0.46894E+00  1260   0.605E+00    0.315E+00
RMM:   4    -0.755854193393E+02   -0.76829E-01   -0.11617E+00  1233   0.293E+00    0.178E+00
RMM:   5    -0.755894148456E+02   -0.39955E-02   -0.18362E-01  1212   0.149E+00    0.668E-01
RMM:   6    -0.755952468669E+02   -0.58320E-02   -0.80675E-02  1263   0.964E-01    0.195E-01
RMM:   7    -0.755972421477E+02   -0.19953E-02   -0.24602E-02  1279   0.558E-01    0.939E-02
RMM:   8    -0.755983510718E+02   -0.11089E-02   -0.12243E-02  1295   0.377E-01    0.557E-02
RMM:   9    -0.755987847314E+02   -0.43366E-03   -0.50122E-03  1262   0.248E-01    0.231E-02
RMM:  10    -0.755990130726E+02   -0.22834E-03   -0.26080E-03  1193   0.176E-01    0.973E-03
RMM:  11    -0.755991658494E+02   -0.15278E-03   -0.16589E-03  1160   0.133E-01    0.801E-03
RMM:  12    -0.755992338939E+02   -0.68045E-04   -0.72518E-04   980   0.992E-02    0.459E-03
RMM:  13    -0.755992690097E+02   -0.35116E-04   -0.39597E-04   901   0.816E-02    0.297E-03
RMM:  14    -0.755992880593E+02   -0.19050E-04   -0.23013E-04   814   0.710E-02    0.165E-03
RMM:  15    -0.755992964166E+02   -0.83574E-05   -0.12144E-04   736   0.644E-02
  91 F= -.75599296E+02 E0= -.75599296E+02  d E =-.529121E-01
       N       E                     dE             d eps       ncg     rms          rms(c)
DAV:   1    -0.751567748148E+02    0.44251E+00   -0.10111E+02   768   0.489E+01    0.378E+00
RMM:   2    -0.755343395791E+02   -0.37756E+00   -0.44498E+00  1016   0.848E+00    0.118E+00
RMM:   3    -0.755982682857E+02   -0.63929E-01   -0.95427E-01  1243   0.308E+00    0.115E+00
RMM:   4    -0.756048111020E+02   -0.65428E-02   -0.19949E-01  1255   0.142E+00    0.633E-01
RMM:   5    -0.756076363793E+02   -0.28253E-02   -0.53396E-02  1238   0.764E-01    0.225E-01
RMM:   6    -0.756094241619E+02   -0.17878E-02   -0.22049E-02  1297   0.488E-01    0.593E-02
RMM:   7    -0.756101251857E+02   -0.70102E-03   -0.84069E-03  1248   0.302E-01    0.243E-02
RMM:   8    -0.756104572241E+02   -0.33204E-03   -0.36834E-03  1271   0.206E-01    0.101E-02
RMM:   9    -0.756106318636E+02   -0.17464E-03   -0.18890E-03  1162   0.144E-01    0.796E-03
RMM:  10    -0.756107089696E+02   -0.77106E-04   -0.85834E-04  1089   0.106E-01    0.396E-03
RMM:  11    -0.756107564065E+02   -0.47437E-04   -0.52075E-04  1018   0.830E-02    0.332E-03
RMM:  12    -0.756107722120E+02   -0.15806E-04   -0.18712E-04   810   0.666E-02
  92 F= -.75610772E+02 E0= -.75610772E+02  d E =-.643879E-01
       N       E                     dE             d eps       ncg     rms          rms(c)
DAV:   1    -0.756062077576E+02    0.45486E-02   -0.43155E+00   768   0.997E+00    0.571E-01
RMM:   2    -0.756197127203E+02   -0.13505E-01   -0.15926E-01   995   0.166E+00    0.216E-01
RMM:   3    -0.756202457653E+02   -0.53304E-03   -0.22435E-02  1239   0.549E-01    0.188E-01
RMM:   4    -0.756203028998E+02   -0.57134E-04   -0.64062E-03  1185   0.235E-01    0.902E-02
RMM:   5    -0.756204806603E+02   -0.17776E-03   -0.24389E-03  1166   0.139E-01    0.314E-02
RMM:   6    -0.756205405211E+02   -0.59861E-04   -0.93765E-04  1069   0.884E-02    0.106E-02
RMM:   7    -0.756205676337E+02   -0.27113E-04   -0.33623E-04   800   0.616E-02    0.467E-03
RMM:   8    -0.756205712019E+02   -0.35682E-05   -0.68875E-05   643   0.488E-02
  93 F= -.75620571E+02 E0= -.75620571E+02  d E =-.979899E-02
       N       E                     dE             d eps       ncg     rms          rms(c)
DAV:   1    -0.755000761037E+02    0.12049E+00   -0.38480E+01   768   0.299E+01    0.187E+00
RMM:   2    -0.756326031817E+02   -0.13253E+00   -0.15603E+00  1001   0.507E+00    0.667E-01
RMM:   3    -0.756448021824E+02   -0.12199E-01   -0.26974E-01  1248   0.178E+00    0.614E-01
RMM:   4    -0.756465348614E+02   -0.17327E-02   -0.68766E-02  1241   0.812E-01    0.331E-01
RMM:   5    -0.756480418049E+02   -0.15069E-02   -0.24054E-02  1184   0.465E-01    0.100E-01
RMM:   6    -0.756488163042E+02   -0.77450E-03   -0.10040E-02  1250   0.299E-01    0.369E-02
RMM:   7    -0.756492092405E+02   -0.39294E-03   -0.44957E-03  1193   0.192E-01    0.194E-02
RMM:   8    -0.756493591549E+02   -0.14991E-03   -0.16469E-03  1101   0.127E-01    0.710E-03
RMM:   9    -0.756494268436E+02   -0.67689E-04   -0.77538E-04  1063   0.908E-02    0.382E-03
RMM:  10    -0.756494602503E+02   -0.33407E-04   -0.38228E-04   842   0.699E-02    0.202E-03
RMM:  11    -0.756494668347E+02   -0.65844E-05   -0.95759E-05   661   0.576E-02
  94 F= -.75649467E+02 E0= -.75649467E+02  d E =-.386946E-01
       N       E                     dE             d eps       ncg     rms          rms(c)
DAV:   1    -0.749649383599E+02    0.68452E+00   -0.14974E+02   768   0.594E+01    0.485E+00
RMM:   2    -0.755855506954E+02   -0.62061E+00   -0.73208E+00   988   0.105E+01    0.150E+00
RMM:   3    -0.756832832621E+02   -0.97733E-01   -0.16138E+00  1260   0.388E+00    0.163E+00
RMM:   4    -0.756992467902E+02   -0.15964E-01   -0.34464E-01  1236   0.176E+00    0.962E-01
RMM:   5    -0.757018155466E+02   -0.25688E-02   -0.85779E-02  1199   0.964E-01    0.256E-01
RMM:   6    -0.757049023955E+02   -0.30868E-02   -0.37026E-02  1262   0.608E-01    0.119E-01
RMM:   7    -0.757060041964E+02   -0.11018E-02   -0.13828E-02  1242   0.369E-01    0.553E-02
RMM:   8    -0.757065286504E+02   -0.52445E-03   -0.60037E-03  1276   0.249E-01    0.242E-02
RMM:   9    -0.757067881394E+02   -0.25949E-03   -0.28615E-03  1198   0.169E-01    0.144E-02
RMM:  10    -0.757069060119E+02   -0.11787E-03   -0.13506E-03  1126   0.121E-01    0.487E-03
RMM:  11    -0.757069774281E+02   -0.71416E-04   -0.78115E-04  1026   0.914E-02    0.479E-03
RMM:  12    -0.757070028527E+02   -0.25425E-04   -0.28968E-04   841   0.708E-02    0.291E-03
RMM:  13    -0.757070129082E+02   -0.10056E-04   -0.14031E-04   745   0.622E-02
  95 F= -.75707013E+02 E0= -.75707013E+02  d E =-.962407E-01
       N       E                     dE             d eps       ncg     rms          rms(c)
DAV:   1    -0.717717534842E+02    0.39352E+01   -0.54436E+02   768   0.115E+02    0.182E+01
RMM:   2    -0.747464378232E+02   -0.29747E+01   -0.35624E+01   981   0.226E+01    0.485E+00
RMM:   3    -0.755625403684E+02   -0.81610E+00   -0.10295E+01  1260   0.853E+00    0.595E+00
RMM:   4    -0.757892200002E+02   -0.22668E+00   -0.28274E+00  1240   0.423E+00    0.351E+00
RMM:   5    -0.758057442557E+02   -0.16524E-01   -0.43527E-01  1276   0.222E+00    0.161E+00
RMM:   6    -0.758186115030E+02   -0.12867E-01   -0.17893E-01  1231   0.138E+00    0.409E-01
RMM:   7    -0.758225732024E+02   -0.39617E-02   -0.47854E-02  1309   0.774E-01    0.204E-01
RMM:   8    -0.758246823192E+02   -0.21091E-02   -0.22296E-02  1291   0.497E-01    0.160E-01
RMM:   9    -0.758253499630E+02   -0.66764E-03   -0.74810E-03  1266   0.300E-01    0.154E-01
RMM:  10    -0.758258793630E+02   -0.52940E-03   -0.37271E-03  1293   0.204E-01    0.178E-01
RMM:  11    -0.758258246169E+02    0.54746E-04   -0.24106E-03  1121   0.180E-01    0.652E-02
RMM:  12    -0.758258397576E+02   -0.15141E-04   -0.10070E-03  1132   0.116E-01    0.464E-02
RMM:  13    -0.758258484264E+02   -0.86688E-05   -0.56842E-04  1044   0.875E-02    0.130E-02
RMM:  14    -0.758258705197E+02   -0.22093E-04   -0.26064E-04   763   0.672E-02    0.773E-03
RMM:  15    -0.758258776701E+02   -0.71504E-05   -0.11773E-04   601   0.607E-02
  96 F= -.75825878E+02 E0= -.75825878E+02  d E =-.215105E+00
       N       E                     dE             d eps       ncg     rms          rms(c)
DAV:   1    -0.584265694524E+02    0.17399E+02   -0.17377E+03   768   0.206E+02    0.925E+01
RMM:   2    -0.700832727271E+02   -0.11657E+02   -0.14198E+02  1020   0.471E+01    0.264E+01
RMM:   3    -0.733686606242E+02   -0.32854E+01   -0.41195E+01  1277   0.163E+01    0.278E+01
RMM:   4    -0.755512176629E+02   -0.21826E+01   -0.24139E+01  1329   0.104E+01    0.158E+01
RMM:   5    -0.758453662377E+02   -0.29415E+00   -0.37765E+00  1318   0.537E+00    0.102E+01
RMM:   6    -0.758420845962E+02    0.32816E-02   -0.84565E-01  1298   0.327E+00    0.343E+00
RMM:   7    -0.758655104930E+02   -0.23426E-01   -0.23615E-01  1270   0.183E+00    0.722E-01
RMM:   8    -0.758756923797E+02   -0.10182E-01   -0.13327E-01  1328   0.118E+00    0.610E-01
RMM:   9    -0.758796794713E+02   -0.39871E-02   -0.43535E-02  1293   0.688E-01    0.421E-01
RMM:  10    -0.758813442746E+02   -0.16648E-02   -0.18252E-02  1296   0.434E-01    0.210E-01
RMM:  11    -0.758822161235E+02   -0.87185E-03   -0.88358E-03  1262   0.278E-01    0.462E-02
RMM:  12    -0.758827186799E+02   -0.50256E-03   -0.50420E-03  1253   0.193E-01    0.237E-02
RMM:  13    -0.758829951593E+02   -0.27648E-03   -0.26236E-03   848   0.134E-01    0.151E-02
RMM:  14    -0.758831595776E+02   -0.16442E-03   -0.15933E-03   812   0.107E-01    0.132E-02
RMM:  15    -0.758832629811E+02   -0.10340E-03   -0.10144E-03   854   0.882E-02    0.145E-02
RMM:  16    -0.758833189690E+02   -0.55988E-04   -0.55658E-04   629   0.734E-02    0.153E-02
RMM:  17    -0.758833547372E+02   -0.35768E-04   -0.37546E-04   660   0.685E-02    0.889E-03
RMM:  18    -0.758833774018E+02   -0.22665E-04   -0.25136E-04   680   0.643E-02    0.104E-02
RMM:  19    -0.758833975195E+02   -0.20118E-04   -0.23384E-04   796   0.604E-02    0.130E-02
RMM:  20    -0.758834031442E+02   -0.56247E-05   -0.73046E-05   548   0.540E-02
  97 F= -.75883403E+02 E0= -.75883403E+02  d E =-.272631E+00
       N       E                     dE             d eps       ncg     rms          rms(c)
DAV:   1    -0.708828399760E+02    0.50006E+01   -0.64280E+02   768   0.124E+02    0.207E+01
RMM:   2    -0.745522848376E+02   -0.36694E+01   -0.43095E+01   969   0.255E+01    0.592E+00
RMM:   3    -0.755038233126E+02   -0.95154E+00   -0.12871E+01  1227   0.906E+00    0.647E+00
RMM:   4    -0.758491847305E+02   -0.34536E+00   -0.42643E+00  1210   0.486E+00    0.374E+00
RMM:   5    -0.758858220927E+02   -0.36637E-01   -0.69907E-01  1256   0.256E+00    0.181E+00
RMM:   6    -0.759027718127E+02   -0.16950E-01   -0.26356E-01  1241   0.158E+00    0.333E-01
RMM:   7    -0.759084556516E+02   -0.56838E-02   -0.59630E-02  1309   0.841E-01    0.222E-01
RMM:   8    -0.759108871919E+02   -0.24315E-02   -0.25302E-02  1314   0.506E-01    0.122E-01
RMM:   9    -0.759114296599E+02   -0.54247E-03   -0.69544E-03  1251   0.291E-01    0.720E-02
RMM:  10    -0.759116891368E+02   -0.25948E-03   -0.34784E-03  1256   0.190E-01    0.325E-02
RMM:  11    -0.759118517396E+02   -0.16260E-03   -0.17485E-03  1116   0.128E-01    0.268E-02
RMM:  12    -0.759119308342E+02   -0.79095E-04   -0.80901E-04   864   0.939E-02    0.283E-02
RMM:  13    -0.759119682613E+02   -0.37427E-04   -0.42649E-04   706   0.775E-02    0.248E-02
RMM:  14    -0.759119896154E+02   -0.21354E-04   -0.28501E-04   699   0.716E-02    0.161E-02
RMM:  15    -0.759120131724E+02   -0.23557E-04   -0.25207E-04   791   0.680E-02    0.182E-02
RMM:  16    -0.759120223654E+02   -0.91930E-05   -0.13563E-04   670   0.614E-02
  98 F= -.75912022E+02 E0= -.75912022E+02  d E =-.301250E+00
       N       E                     dE             d eps       ncg     rms          rms(c)
DAV:   1    -0.743965813513E+02    0.15154E+01   -0.26522E+02   768   0.795E+01    0.856E+00
RMM:   2    -0.756113392592E+02   -0.12148E+01   -0.14404E+01   973   0.145E+01    0.234E+00
RMM:   3    -0.758518884687E+02   -0.24055E+00   -0.36667E+00  1246   0.546E+00    0.267E+00
RMM:   4    -0.759099078065E+02   -0.58019E-01   -0.89049E-01  1240   0.262E+00    0.155E+00
RMM:   5    -0.759149918563E+02   -0.50840E-02   -0.15559E-01  1213   0.132E+00    0.634E-01
RMM:   6    -0.759198085187E+02   -0.48167E-02   -0.63362E-02  1243   0.830E-01    0.183E-01
RMM:   7    -0.759214246156E+02   -0.16161E-02   -0.19339E-02  1268   0.453E-01    0.883E-02
RMM:   8    -0.759221771374E+02   -0.75252E-03   -0.80460E-03  1287   0.281E-01    0.789E-02
RMM:   9    -0.759223768627E+02   -0.19973E-03   -0.25576E-03  1255   0.161E-01    0.473E-02
RMM:  10    -0.759225387898E+02   -0.16193E-03   -0.11339E-03  1205   0.117E-01    0.644E-02
RMM:  11    -0.759224905059E+02    0.48284E-04   -0.48254E-04  1055   0.773E-02    0.203E-02
RMM:  12    -0.759224931687E+02   -0.26628E-05   -0.13461E-04   697   0.587E-02
  99 F= -.75922493E+02 E0= -.75922493E+02  d E =-.311721E+00
       N       E                     dE             d eps       ncg     rms          rms(c)
DAV:   1    -0.757421388388E+02    0.18035E+00   -0.47810E+01   768   0.335E+01    0.224E+00
RMM:   2    -0.759066072169E+02   -0.16447E+00   -0.19003E+00  1005   0.569E+00    0.788E-01
RMM:   3    -0.759215972967E+02   -0.14990E-01   -0.33022E-01  1242   0.197E+00    0.709E-01
RMM:   4    -0.759232109952E+02   -0.16137E-02   -0.86201E-02  1229   0.918E-01    0.333E-01
RMM:   5    -0.759254167005E+02   -0.22057E-02   -0.29536E-02  1256   0.513E-01    0.119E-01
RMM:   6    -0.759261777637E+02   -0.76106E-03   -0.10727E-02  1252   0.311E-01    0.419E-02
RMM:   7    -0.759265514678E+02   -0.37370E-03   -0.42230E-03  1240   0.188E-01    0.240E-02
RMM:   8    -0.759266708699E+02   -0.11940E-03   -0.13772E-03  1204   0.114E-01    0.801E-03
RMM:   9    -0.759267089849E+02   -0.38115E-04   -0.44083E-04   926   0.746E-02    0.355E-03
RMM:  10    -0.759267209471E+02   -0.11962E-04   -0.15682E-04   795   0.583E-02
 100 F= -.75926721E+02 E0= -.75926721E+02  d E =-.315949E+00
