  16  16   0   0
  0.1928311E+02  0.6093030E-09  0.5824743E-09  0.9024037E-09  0.5000000E-15
  1.000000000000000E-004
  CAR 
 unknown system                          
     11.72464922    -43.31836742  301      3.37645837      1.00000000
    -43.318  0.0000E+00  0.0000E+00
    -43.135  0.0000E+00  0.0000E+00
    -42.951  0.0000E+00  0.0000E+00
    -42.768  0.0000E+00  0.0000E+00
    -42.584  0.0000E+00  0.0000E+00
    -42.401  0.0000E+00  0.0000E+00
    -42.218  0.0000E+00  0.0000E+00
    -42.034  0.0000E+00  0.0000E+00
    -41.851  0.0000E+00  0.0000E+00
    -41.667  0.0000E+00  0.0000E+00
    -41.484  0.0000E+00  0.0000E+00
    -41.300  0.0000E+00  0.0000E+00
    -41.117  0.0000E+00  0.0000E+00
    -40.933  0.0000E+00  0.0000E+00
    -40.750  0.0000E+00  0.4000E-01
    -40.566  0.0000E+00  0.8000E-01
    -40.383  0.0000E+00  0.1200E+00
    -40.199  0.0000E+00  0.1200E+00
    -40.016  0.0000E+00  0.1200E+00
    -39.832  0.0000E+00  0.1200E+00
    -39.649  0.0000E+00  0.1200E+00
    -39.465  0.0000E+00  0.1200E+00
    -39.282  0.0000E+00  0.1200E+00
    -39.098  0.0000E+00  0.1200E+00
    -38.915  0.0000E+00  0.1200E+00
    -38.731  0.0000E+00  0.1200E+00
    -38.548  0.0000E+00  0.1200E+00
    -38.364  0.0000E+00  0.1200E+00
    -38.181  0.0000E+00  0.1200E+00
    -37.998  0.0000E+00  0.1200E+00
    -37.814  0.0000E+00  0.1200E+00
    -37.631  0.0000E+00  0.1200E+00
    -37.447  0.0000E+00  0.1200E+00
    -37.264  0.0000E+00  0.1200E+00
    -37.080  0.0000E+00  0.1200E+00
    -36.897  0.0000E+00  0.1200E+00
    -36.713  0.0000E+00  0.1200E+00
    -36.530  0.0000E+00  0.1200E+00
    -36.346  0.0000E+00  0.1200E+00
    -36.163  0.0000E+00  0.1200E+00
    -35.979  0.0000E+00  0.1200E+00
    -35.796  0.0000E+00  0.1200E+00
    -35.612  0.0000E+00  0.1200E+00
    -35.429  0.0000E+00  0.1200E+00
    -35.245  0.0000E+00  0.1200E+00
    -35.062  0.0000E+00  0.1200E+00
    -34.878  0.0000E+00  0.1200E+00
    -34.695  0.0000E+00  0.1200E+00
    -34.511  0.0000E+00  0.1200E+00
    -34.328  0.0000E+00  0.1200E+00
    -34.145  0.0000E+00  0.1200E+00
    -33.961  0.0000E+00  0.1200E+00
    -33.778  0.0000E+00  0.1200E+00
    -33.594  0.0000E+00  0.1200E+00
    -33.411  0.0000E+00  0.1200E+00
    -33.227  0.0000E+00  0.1200E+00
    -33.044  0.0000E+00  0.1200E+00
    -32.860  0.0000E+00  0.1200E+00
    -32.677  0.0000E+00  0.1200E+00
    -32.493  0.0000E+00  0.1200E+00
    -32.310  0.0000E+00  0.1200E+00
    -32.126  0.0000E+00  0.1200E+00
    -31.943  0.0000E+00  0.1200E+00
    -31.759  0.0000E+00  0.1200E+00
    -31.576  0.0000E+00  0.1200E+00
    -31.392  0.0000E+00  0.1200E+00
    -31.209  0.0000E+00  0.1200E+00
    -31.025  0.0000E+00  0.1200E+00
    -30.842  0.0000E+00  0.1200E+00
    -30.658  0.0000E+00  0.1200E+00
    -30.475  0.0000E+00  0.1200E+00
    -30.292  0.0000E+00  0.1200E+00
    -30.108  0.0000E+00  0.1200E+00
    -29.925  0.0000E+00  0.1200E+00
    -29.741  0.0000E+00  0.1200E+00
    -29.558  0.0000E+00  0.1200E+00
    -29.374  0.0000E+00  0.1200E+00
    -29.191  0.0000E+00  0.1200E+00
    -29.007  0.0000E+00  0.1200E+00
    -28.824  0.0000E+00  0.1200E+00
    -28.640  0.0000E+00  0.1200E+00
    -28.457  0.0000E+00  0.1200E+00
    -28.273  0.0000E+00  0.1200E+00
    -28.090  0.0000E+00  0.1200E+00
    -27.906  0.0000E+00  0.1200E+00
    -27.723  0.0000E+00  0.1200E+00
    -27.539  0.0000E+00  0.1200E+00
    -27.356  0.0000E+00  0.1200E+00
    -27.172  0.0000E+00  0.1200E+00
    -26.989  0.0000E+00  0.1200E+00
    -26.805  0.0000E+00  0.1200E+00
    -26.622  0.0000E+00  0.1200E+00
    -26.439  0.0000E+00  0.1200E+00
    -26.255  0.0000E+00  0.1200E+00
    -26.072  0.0000E+00  0.1200E+00
    -25.888  0.0000E+00  0.1200E+00
    -25.705  0.0000E+00  0.1200E+00
    -25.521  0.0000E+00  0.1200E+00
    -25.338  0.0000E+00  0.1200E+00
    -25.154  0.0000E+00  0.1200E+00
    -24.971  0.0000E+00  0.1200E+00
    -24.787  0.0000E+00  0.1200E+00
    -24.604  0.0000E+00  0.1200E+00
    -24.420  0.0000E+00  0.1200E+00
    -24.237  0.0000E+00  0.1200E+00
    -24.053  0.0000E+00  0.1200E+00
    -23.870  0.0000E+00  0.1200E+00
    -23.686  0.0000E+00  0.1200E+00
    -23.503  0.0000E+00  0.1200E+00
    -23.319  0.0000E+00  0.1200E+00
    -23.136  0.0000E+00  0.1200E+00
    -22.952  0.0000E+00  0.1200E+00
    -22.769  0.0000E+00  0.1200E+00
    -22.585  0.0000E+00  0.1200E+00
    -22.402  0.0000E+00  0.1200E+00
    -22.219  0.0000E+00  0.1200E+00
    -22.035  0.0000E+00  0.1200E+00
    -21.852  0.0000E+00  0.1200E+00
    -21.668  0.0000E+00  0.1200E+00
    -21.485  0.0000E+00  0.1200E+00
    -21.301  0.0000E+00  0.1200E+00
    -21.118  0.0000E+00  0.1200E+00
    -20.934  0.0000E+00  0.1200E+00
    -20.751  0.0000E+00  0.1200E+00
    -20.567  0.0000E+00  0.1200E+00
    -20.384  0.0000E+00  0.1200E+00
    -20.200  0.0000E+00  0.1200E+00
    -20.017  0.0000E+00  0.1200E+00
    -19.833  0.0000E+00  0.1200E+00
    -19.650  0.0000E+00  0.1200E+00
    -19.466  0.0000E+00  0.1200E+00
    -19.283  0.0000E+00  0.1200E+00
    -19.099  0.0000E+00  0.1200E+00
    -18.916  0.0000E+00  0.1200E+00
    -18.732  0.0000E+00  0.1200E+00
    -18.549  0.0000E+00  0.1200E+00
    -18.366  0.0000E+00  0.1200E+00
    -18.182  0.0000E+00  0.1200E+00
    -17.999  0.0000E+00  0.1200E+00
    -17.815  0.0000E+00  0.1200E+00
    -17.632  0.0000E+00  0.1200E+00
    -17.448  0.0000E+00  0.1200E+00
    -17.265  0.0000E+00  0.1200E+00
    -17.081  0.0000E+00  0.1200E+00
    -16.898  0.0000E+00  0.1200E+00
    -16.714  0.0000E+00  0.1200E+00
    -16.531  0.0000E+00  0.1200E+00
    -16.347  0.0000E+00  0.1200E+00
    -16.164  0.0000E+00  0.1200E+00
    -15.980  0.0000E+00  0.1200E+00
    -15.797  0.0000E+00  0.1200E+00
    -15.613  0.0000E+00  0.1200E+00
    -15.430  0.0000E+00  0.1200E+00
    -15.246  0.0000E+00  0.1200E+00
    -15.063  0.0000E+00  0.1200E+00
    -14.879  0.0000E+00  0.1200E+00
    -14.696  0.0000E+00  0.1200E+00
    -14.513  0.0000E+00  0.1200E+00
    -14.329  0.0000E+00  0.1200E+00
    -14.146  0.0000E+00  0.1200E+00
    -13.962  0.0000E+00  0.1200E+00
    -13.779  0.0000E+00  0.1200E+00
    -13.595  0.0000E+00  0.1200E+00
    -13.412  0.0000E+00  0.1200E+00
    -13.228  0.0000E+00  0.1200E+00
    -13.045  0.0000E+00  0.1200E+00
    -12.861  0.0000E+00  0.1200E+00
    -12.678  0.0000E+00  0.1200E+00
    -12.494  0.0000E+00  0.1200E+00
    -12.311  0.0000E+00  0.1200E+00
    -12.127  0.0000E+00  0.1200E+00
    -11.944  0.5356E-01  0.1215E+00
    -11.760  0.3228E+00  0.1553E+00
    -11.577  0.0000E+00  0.1600E+00
    -11.393  0.0000E+00  0.1600E+00
    -11.210  0.0000E+00  0.1600E+00
    -11.026  0.0000E+00  0.1600E+00
    -10.843  0.0000E+00  0.1600E+00
    -10.660  0.0000E+00  0.1600E+00
    -10.476  0.0000E+00  0.1600E+00
    -10.293  0.0000E+00  0.1600E+00
    -10.109  0.0000E+00  0.1600E+00
     -9.926  0.0000E+00  0.1600E+00
     -9.742  0.0000E+00  0.1600E+00
     -9.559  0.0000E+00  0.1600E+00
     -9.375  0.0000E+00  0.1600E+00
     -9.192  0.5876E-01  0.1613E+00
     -9.008  0.1987E+00  0.1915E+00
     -8.825  0.1501E+00  0.2112E+00
     -8.641  0.0000E+00  0.2400E+00
     -8.458  0.1773E+00  0.2558E+00
     -8.274  0.8856E-01  0.2759E+00
     -8.091  0.0000E+00  0.2800E+00
     -7.907  0.0000E+00  0.2800E+00
     -7.724  0.0000E+00  0.2800E+00
     -7.540  0.0000E+00  0.2800E+00
     -7.357  0.0000E+00  0.2800E+00
     -7.173  0.0000E+00  0.2800E+00
     -6.990  0.0000E+00  0.2800E+00
     -6.806  0.0000E+00  0.2800E+00
     -6.623  0.0000E+00  0.2800E+00
     -6.440  0.0000E+00  0.2800E+00
     -6.256  0.0000E+00  0.2800E+00
     -6.073  0.0000E+00  0.2800E+00
     -5.889  0.0000E+00  0.2800E+00
     -5.706  0.0000E+00  0.2800E+00
     -5.522  0.0000E+00  0.2800E+00
     -5.339  0.0000E+00  0.2800E+00
     -5.155  0.0000E+00  0.2800E+00
     -4.972  0.6382E-02  0.2801E+00
     -4.788  0.2420E-01  0.2829E+00
     -4.605  0.5342E-01  0.2908E+00
     -4.421  0.1391E+00  0.3043E+00
     -4.238  0.3491E-01  0.3175E+00
     -4.054  0.0000E+00  0.3200E+00
     -3.871  0.0000E+00  0.3200E+00
     -3.687  0.0000E+00  0.3200E+00
     -3.504  0.0000E+00  0.3200E+00
     -3.320  0.0000E+00  0.3200E+00
     -3.137  0.0000E+00  0.3200E+00
     -2.953  0.0000E+00  0.3200E+00
     -2.770  0.0000E+00  0.3200E+00
     -2.587  0.0000E+00  0.3200E+00
     -2.403  0.0000E+00  0.3200E+00
     -2.220  0.0000E+00  0.3200E+00
     -2.036  0.1062E+00  0.3316E+00
     -1.853  0.9309E-01  0.3552E+00
     -1.669  0.1462E+00  0.3772E+00
     -1.486  0.3562E-01  0.3981E+00
     -1.302  0.6030E-01  0.4045E+00
     -1.119  0.9925E-01  0.4232E+00
     -0.935  0.0000E+00  0.4400E+00
     -0.752  0.0000E+00  0.4400E+00
     -0.568  0.0000E+00  0.4400E+00
     -0.385  0.0000E+00  0.4400E+00
     -0.201  0.0000E+00  0.4400E+00
     -0.018  0.0000E+00  0.4400E+00
      0.166  0.1645E+00  0.4418E+00
      0.349  0.6135E-01  0.4630E+00
      0.533  0.3670E-01  0.4806E+00
      0.716  0.8303E-01  0.4974E+00
      0.900  0.1014E+00  0.5166E+00
      1.083  0.1203E+00  0.5307E+00
      1.266  0.9841E-01  0.5517E+00
      1.450  0.9897E-01  0.5644E+00
      1.633  0.8415E-01  0.5844E+00
      1.817  0.6795E-01  0.5986E+00
      2.000  0.9065E-01  0.6172E+00
      2.184  0.8844E-01  0.6369E+00
      2.367  0.7471E-01  0.6581E+00
      2.551  0.6051E-01  0.6795E+00
      2.734  0.1303E+00  0.6968E+00
      2.918  0.1221E+00  0.7214E+00
      3.101  0.1021E-01  0.7401E+00
      3.285  0.3212E-01  0.7595E+00
      3.468  0.0000E+00  0.7600E+00
      3.652  0.0000E+00  0.7600E+00
      3.835  0.0000E+00  0.7600E+00
      4.019  0.0000E+00  0.7600E+00
      4.202  0.0000E+00  0.7600E+00
      4.386  0.0000E+00  0.7600E+00
      4.569  0.0000E+00  0.7600E+00
      4.753  0.0000E+00  0.7600E+00
      4.936  0.0000E+00  0.7600E+00
      5.119  0.0000E+00  0.7600E+00
      5.303  0.0000E+00  0.7600E+00
      5.486  0.0000E+00  0.7600E+00
      5.670  0.0000E+00  0.7600E+00
      5.853  0.7180E-02  0.7601E+00
      6.037  0.8960E-01  0.7684E+00
      6.220  0.6746E-01  0.7880E+00
      6.404  0.2547E-01  0.7980E+00
      6.587  0.6935E-01  0.8030E+00
      6.771  0.3793E-01  0.8173E+00
      6.954  0.7359E-01  0.8284E+00
      7.138  0.4169E-01  0.8391E+00
      7.321  0.6418E-01  0.8512E+00
      7.505  0.1069E+00  0.8672E+00
      7.688  0.5769E-01  0.8804E+00
      7.872  0.1131E+00  0.8934E+00
      8.055  0.6163E-01  0.9060E+00
      8.239  0.4144E-01  0.9190E+00
      8.422  0.0000E+00  0.9200E+00
      8.606  0.1043E-01  0.9201E+00
      8.789  0.8070E-01  0.9271E+00
      8.972  0.7017E-01  0.9437E+00
      9.156  0.6942E-01  0.9592E+00
      9.339  0.0000E+00  0.9600E+00
      9.523  0.0000E+00  0.9600E+00
      9.706  0.0000E+00  0.9600E+00
      9.890  0.0000E+00  0.9600E+00
     10.073  0.0000E+00  0.9600E+00
     10.257  0.0000E+00  0.9600E+00
     10.440  0.0000E+00  0.9600E+00
     10.624  0.0000E+00  0.9600E+00
     10.807  0.0000E+00  0.9600E+00
     10.991  0.0000E+00  0.9600E+00
     11.174  0.0000E+00  0.9600E+00
     11.358  0.0000E+00  0.9600E+00
     11.541  0.0000E+00  0.9600E+00
     11.725  0.0000E+00  0.9600E+00
