Automatically generated mesh
      16
Reciprocal lattice
    0.12500000000000    0.12500000000000    0.12500000000000             4
    0.37500000000000    0.12500000000000    0.12500000000000             4
   -0.37500000000000    0.12500000000000    0.12500000000000             4
   -0.12500000000000    0.12500000000000    0.12500000000000             4
    0.12500000000000    0.37500000000000    0.12500000000000             4
    0.37500000000000    0.37500000000000    0.12500000000000             4
   -0.37500000000000    0.37500000000000    0.12500000000000             4
   -0.12500000000000    0.37500000000000    0.12500000000000             4
    0.12500000000000    0.12500000000000    0.37500000000000             4
    0.37500000000000    0.12500000000000    0.37500000000000             4
   -0.37500000000000    0.12500000000000    0.37500000000000             4
   -0.12500000000000    0.12500000000000    0.37500000000000             4
    0.12500000000000    0.37500000000000    0.37500000000000             4
    0.37500000000000    0.37500000000000    0.37500000000000             4
   -0.37500000000000    0.37500000000000    0.37500000000000             4
   -0.12500000000000    0.37500000000000    0.37500000000000             4
Tetrahedra
       172    0.00260416666667
         2         1         2         5        10
         2         2         5         6        10
         2         5         6        10        14
         2         1         5         9        10
         2         5         9        10        13
         2         5        10        13        14
         2         2         3         6        11
         2         3         6         7        11
         2         6         7        11        15
         2         2         6        10        11
         2         6        10        11        14
         2         6        11        14        15
         2         3         4         7        12
         2         4         7         8        12
         2         7         8        12        16
         2         3         7        11        12
         2         7        11        12        15
         2         7        12        15        16
         2         1         4         8         9
         2         1         5         8         9
         2         5         8         9        13
         2         4         8         9        12
         2         8         9        12        16
         2         8         9        13        16
         2         5         5         6        14
         2         5         6         6        14
         2         5         6        14        14
         2         5         5        13        14
         2         5        13        13        14
         2         5        13        14        14
         2         6         6         7        15
         2         6         7         7        15
         2         6         7        15        15
         2         6         6        14        15
         2         6        14        14        15
         2         6        14        15        15
         2         7         7         8        16
         2         7         8         8        16
         2         7         8        16        16
         2         7         7        15        16
         2         7        15        15        16
         2         7        15        16        16
         2         5         8         8        13
         2         5         5         8        13
         2         5         8        13        13
         2         8         8        13        16
         2         8        13        16        16
         2         8        13        13        16
         2         1         5         6        14
         2         1         2         6        14
         2         1         2        10        14
         2         1         5        13        14
         2         1         9        13        14
         2         1         9        10        14
         2         2         6         7        15
         2         2         3         7        15
         2         2         3        11        15
         2         2         6        14        15
         2         2        10        14        15
         2         2        10        11        15
         2         3         7         8        16
         2         3         4         8        16
         2         3         4        12        16
         2         3         7        15        16
         2         3        11        15        16
         2         3        11        12        16
         2         4         5         8        13
         2         1         4         5        13
         2         1         4         9        13
         2         4         8        13        16
         2         4        12        13        16
         2         4         9        12        13
         2         1         1         2        10
         2         1         2         2        10
         2         1         2        10        10
         2         1         1         9        10
         2         1         9         9        10
         2         1         9        10        10
         2         2         2         3        11
         2         2         3         3        11
         2         2         3        11        11
         2         2         2        10        11
         2         2        10        10        11
         2         2        10        11        11
         2         3         3         4        12
         2         3         4         4        12
         2         3         4        12        12
         2         3         3        11        12
         2         3        11        11        12
         2         3        11        12        12
         2         1         4         4         9
         2         1         1         4         9
         2         1         4         9         9
         2         4         4         9        12
         2         4         9        12        12
         2         4         9         9        12
         2         9        10        11        13
         2        10        11        13        14
         2        11        13        14        15
         2         9        11        12        13
         2        11        12        13        16
         2        11        13        15        16
         4        10        10        11        14
         4        10        11        14        15
         4        10        14        14        15
         2         9        11        12        15
         2         9        12        15        16
         2         9        13        15        16
         2         9        10        11        15
         2         9        10        14        15
         2         9        13        14        15
         4         9        12        12        16
         4         9        12        13        16
         4        12        13        16        16
         2        13        13        14        15
         2        13        14        14        15
         2        13        14        15        15
         2        13        13        15        16
         2        13        15        16        16
         2        13        15        15        16
         4        14        14        14        15
         2        14        14        15        15
         4        13        16        16        16
         2        13        13        16        16
         2         9         9        10        11
         2         9        10        10        11
         2         9        10        11        11
         2         9         9        11        12
         2         9        11        12        12
         2         9        11        11        12
         4        10        10        10        11
         2        10        10        11        11
         4         9        12        12        12
         2         9         9        12        12
         2         2         3         4         8
         2         2         3         7         8
         2         2         6         7         8
         2         1         2         4         8
         2         1         2         5         8
         2         2         5         6         8
         4         2         3         3         7
         4         2         3         6         7
         4         3         6         7         7
         2         1         2         4         6
         2         1         4         5         6
         2         4         5         6         8
         2         2         3         4         6
         2         3         4         6         7
         2         4         6         7         8
         4         1         1         4         5
         4         1         4         5         8
         4         1         5         5         8
         2         6         7         8         8
         2         6         7         7         8
         2         6         6         7         8
         2         5         6         8         8
         2         5         5         6         8
         2         5         6         6         8
         4         6         7         7         7
         2         6         6         7         7
         4         5         5         5         8
         2         5         5         8         8
         2         2         3         4         4
         2         2         3         3         4
         2         2         2         3         4
         2         1         2         4         4
         2         1         1         2         4
         2         1         2         2         4
         4         2         3         3         3
         2         2         2         3         3
         4         1         1         1         4
         2         1         1         4         4
