       N       E                     dE             d eps       ncg     rms          rms(c)
DAV:   1     0.507036515619E+03    0.50704E+03   -0.28057E+04  1536   0.129E+03
DAV:   2     0.784634096193E+01   -0.49919E+03   -0.47624E+03  1784   0.305E+02
DAV:   3    -0.601493612694E+02   -0.67996E+02   -0.66670E+02  2184   0.986E+01
DAV:   4    -0.680054087067E+02   -0.78560E+01   -0.77745E+01  2856   0.331E+01
DAV:   5    -0.691312761401E+02   -0.11259E+01   -0.11251E+01  2376   0.857E+00    0.326E+01
RMM:   6    -0.666512202966E+02    0.24801E+01   -0.64026E+00  1716   0.608E+00    0.198E+01
RMM:   7    -0.661889683340E+02    0.46225E+00   -0.60140E+00  1764   0.585E+00    0.272E+00
RMM:   8    -0.659909586797E+02    0.19801E+00   -0.50638E-01  1825   0.225E+00    0.607E-01
RMM:   9    -0.659844036025E+02    0.65551E-02   -0.58970E-02  2358   0.713E-01    0.461E-01
RMM:  10    -0.659861280291E+02   -0.17244E-02   -0.20216E-02  2282   0.385E-01    0.237E-01
RMM:  11    -0.659868056665E+02   -0.67764E-03   -0.97898E-03  2213   0.293E-01    0.578E-02
RMM:  12    -0.659872209010E+02   -0.41523E-03   -0.53660E-03  2166   0.194E-01    0.368E-02
RMM:  13    -0.659875087239E+02   -0.28782E-03   -0.29556E-03  2149   0.147E-01    0.186E-02
RMM:  14    -0.659876809575E+02   -0.17223E-03   -0.18563E-03  1996   0.115E-01    0.945E-03
RMM:  15    -0.659877886773E+02   -0.10772E-03   -0.11669E-03  1782   0.924E-02    0.829E-03
RMM:  16    -0.659878526208E+02   -0.63943E-04   -0.69186E-04  1533   0.758E-02    0.682E-03
RMM:  17    -0.659878927011E+02   -0.40080E-04   -0.43610E-04  1600   0.660E-02    0.119E-02
RMM:  18    -0.659879140023E+02   -0.21301E-04   -0.26679E-04  1498   0.579E-02    0.104E-02
RMM:  19    -0.659879253838E+02   -0.11381E-04   -0.15452E-04  1472   0.522E-02
   1 F= -.65987925E+02 E0= -.65987925E+02  d E =-.659879E+02
       N       E                     dE             d eps       ncg     rms          rms(c)
DAV:   1    -0.690702147607E+02   -0.30823E+01   -0.43925E+02  1536   0.100E+02    0.183E+01
RMM:   2    -0.695063608777E+02   -0.43615E+00   -0.36478E+01  1998   0.233E+01    0.116E+01
RMM:   3    -0.695044326221E+02    0.19283E-02   -0.91470E+00  2409   0.926E+00    0.105E+01
RMM:   4    -0.692640162601E+02    0.24042E+00   -0.17121E+00  2028   0.476E+00    0.280E+00
RMM:   5    -0.692872420635E+02   -0.23226E-01   -0.72849E-01  2337   0.284E+00    0.112E+00
RMM:   6    -0.692896423408E+02   -0.24003E-02   -0.20207E-01  2314   0.154E+00    0.446E-01
RMM:   7    -0.692915747660E+02   -0.19324E-02   -0.58581E-02  2492   0.934E-01    0.258E-01
RMM:   8    -0.692944921377E+02   -0.29174E-02   -0.33386E-02  2487   0.618E-01    0.857E-02
RMM:   9    -0.692958747191E+02   -0.13826E-02   -0.14116E-02  2567   0.422E-01    0.458E-02
RMM:  10    -0.692966417037E+02   -0.76698E-03   -0.80118E-03  2405   0.312E-01    0.280E-02
RMM:  11    -0.692971337452E+02   -0.49204E-03   -0.51360E-03  2355   0.246E-01    0.131E-02
RMM:  12    -0.692974109596E+02   -0.27721E-03   -0.28626E-03  2332   0.191E-01    0.761E-03
RMM:  13    -0.692976080953E+02   -0.19714E-03   -0.20433E-03  2318   0.156E-01    0.450E-03
RMM:  14    -0.692977208684E+02   -0.11277E-03   -0.11597E-03  2195   0.124E-01    0.372E-03
RMM:  15    -0.692977948286E+02   -0.73960E-04   -0.77330E-04  2075   0.103E-01    0.210E-03
RMM:  16    -0.692978378200E+02   -0.42991E-04   -0.45732E-04  1920   0.866E-02    0.260E-03
RMM:  17    -0.692978625451E+02   -0.24725E-04   -0.27536E-04  1767   0.756E-02    0.513E-03
RMM:  18    -0.692978757495E+02   -0.13204E-04   -0.16521E-04  1586   0.686E-02
   2 F= -.69297876E+02 E0= -.69297876E+02  d E =-.330995E+01
       N       E                     dE             d eps       ncg     rms          rms(c)
DAV:   1    -0.694520672071E+02   -0.15420E+00   -0.20047E+01  1728   0.210E+01    0.304E+00
RMM:   2    -0.694141226168E+02    0.37945E-01   -0.10486E+00  1966   0.433E+00    0.149E+00
RMM:   3    -0.693961002300E+02    0.18022E-01   -0.23603E-01  2282   0.172E+00    0.841E-01
RMM:   4    -0.693929078410E+02    0.31924E-02   -0.47517E-02  2348   0.767E-01    0.314E-01
RMM:   5    -0.693931669832E+02   -0.25914E-03   -0.13326E-02  2532   0.437E-01    0.119E-01
RMM:   6    -0.693936426124E+02   -0.47563E-03   -0.61809E-03  2468   0.275E-01    0.492E-02
RMM:   7    -0.693939148477E+02   -0.27224E-03   -0.29227E-03  2507   0.197E-01    0.170E-02
RMM:   8    -0.693940943486E+02   -0.17950E-03   -0.18724E-03  2242   0.147E-01    0.629E-03
RMM:   9    -0.693941891318E+02   -0.94783E-04   -0.97620E-04  2251   0.115E-01    0.559E-03
RMM:  10    -0.693942477541E+02   -0.58622E-04   -0.61930E-04  2045   0.931E-02    0.222E-03
RMM:  11    -0.693942790051E+02   -0.31251E-04   -0.33637E-04  1855   0.773E-02    0.194E-03
RMM:  12    -0.693942922703E+02   -0.13265E-04   -0.16193E-04  1588   0.673E-02
   3 F= -.69394292E+02 E0= -.69394292E+02  d E =-.340637E+01
       N       E                     dE             d eps       ncg     rms          rms(c)
DAV:   1    -0.700141887708E+02   -0.61991E+00   -0.17566E+02  1536   0.625E+01    0.978E+00
RMM:   2    -0.705295019129E+02   -0.51531E+00   -0.91518E+00  1938   0.121E+01    0.220E+00
RMM:   3    -0.705180605094E+02    0.11441E-01   -0.17482E+00  2429   0.429E+00    0.154E+00
RMM:   4    -0.705241679660E+02   -0.61075E-02   -0.40269E-01  2450   0.201E+00    0.654E-01
RMM:   5    -0.705302392721E+02   -0.60713E-02   -0.10481E-01  2563   0.112E+00    0.315E-01
RMM:   6    -0.705339862562E+02   -0.37470E-02   -0.44467E-02  2526   0.702E-01    0.106E-01
RMM:   7    -0.705357019756E+02   -0.17157E-02   -0.17945E-02  2516   0.459E-01    0.467E-02
RMM:   8    -0.705367423978E+02   -0.10404E-02   -0.10766E-02  2551   0.337E-01    0.283E-02
RMM:   9    -0.705372388806E+02   -0.49648E-03   -0.50845E-03  2447   0.243E-01    0.112E-02
RMM:  10    -0.705375582579E+02   -0.31938E-03   -0.33263E-03  2336   0.187E-01    0.117E-02
RMM:  11    -0.705377298691E+02   -0.17161E-03   -0.17485E-03  2300   0.143E-01    0.170E-02
RMM:  12    -0.705378312637E+02   -0.10139E-03   -0.10548E-03  2170   0.111E-01    0.200E-02
RMM:  13    -0.705378809987E+02   -0.49735E-04   -0.53516E-04  1983   0.893E-02    0.191E-02
RMM:  14    -0.705379109026E+02   -0.29904E-04   -0.34215E-04  1846   0.756E-02    0.165E-02
RMM:  15    -0.705379202463E+02   -0.93437E-05   -0.12580E-04  1483   0.657E-02
   4 F= -.70537920E+02 E0= -.70537920E+02  d E =-.114363E+01
       N       E                     dE             d eps       ncg     rms          rms(c)
DAV:   1    -0.705928825120E+02   -0.54972E-01   -0.49045E+01  1536   0.334E+01    0.443E+00
RMM:   2    -0.707036309978E+02   -0.11075E+00   -0.20865E+00  1995   0.616E+00    0.129E+00
RMM:   3    -0.706971513776E+02    0.64796E-02   -0.33094E-01  2468   0.209E+00    0.748E-01
RMM:   4    -0.706971831884E+02   -0.31811E-04   -0.89201E-02  2515   0.968E-01    0.282E-01
RMM:   5    -0.706991804480E+02   -0.19973E-02   -0.29610E-02  2515   0.571E-01    0.136E-01
RMM:   6    -0.707005310029E+02   -0.13506E-02   -0.14644E-02  2504   0.388E-01    0.554E-02
RMM:   7    -0.707011133280E+02   -0.58233E-03   -0.58394E-03  2463   0.254E-01    0.267E-02
RMM:   8    -0.707014332068E+02   -0.31988E-03   -0.32867E-03  2370   0.184E-01    0.151E-02
RMM:   9    -0.707015899915E+02   -0.15678E-03   -0.16045E-03  2379   0.135E-01    0.774E-03
RMM:  10    -0.707016785580E+02   -0.88567E-04   -0.92485E-04  2184   0.104E-01    0.619E-03
RMM:  11    -0.707017204485E+02   -0.41891E-04   -0.44564E-04  1867   0.820E-02    0.229E-03
RMM:  12    -0.707017422426E+02   -0.21794E-04   -0.24935E-04  1696   0.696E-02    0.234E-03
RMM:  13    -0.707017490382E+02   -0.67956E-05   -0.10120E-04  1432   0.621E-02
   5 F= -.70701749E+02 E0= -.70701749E+02  d E =-.130746E+01
       N       E                     dE             d eps       ncg     rms          rms(c)
DAV:   1    -0.704354690412E+02    0.26627E+00   -0.17110E+02  1536   0.634E+01    0.110E+01
RMM:   2    -0.711722643616E+02   -0.73680E+00   -0.86911E+00  1963   0.120E+01    0.225E+00
RMM:   3    -0.712713936176E+02   -0.99129E-01   -0.20060E+00  2483   0.436E+00    0.239E+00
RMM:   4    -0.712805325339E+02   -0.91389E-02   -0.43463E-01  2385   0.210E+00    0.104E+00
RMM:   5    -0.712853920137E+02   -0.48595E-02   -0.11048E-01  2487   0.117E+00    0.239E-01
RMM:   6    -0.712887249732E+02   -0.33330E-02   -0.42726E-02  2562   0.712E-01    0.764E-02
RMM:   7    -0.712905679290E+02   -0.18430E-02   -0.19225E-02  2480   0.459E-01    0.545E-02
RMM:   8    -0.712914914053E+02   -0.92348E-03   -0.92748E-03  2487   0.321E-01    0.256E-02
RMM:   9    -0.712919356786E+02   -0.44427E-03   -0.46649E-03  2422   0.225E-01    0.119E-02
RMM:  10    -0.712922028123E+02   -0.26713E-03   -0.27695E-03  2311   0.167E-01    0.104E-02
RMM:  11    -0.712923427422E+02   -0.13993E-03   -0.14253E-03  2229   0.124E-01    0.884E-03
RMM:  12    -0.712924213630E+02   -0.78621E-04   -0.82057E-04  2096   0.959E-02    0.372E-03
RMM:  13    -0.712924584136E+02   -0.37051E-04   -0.38732E-04  1744   0.754E-02    0.325E-03
RMM:  14    -0.712924734235E+02   -0.15010E-04   -0.17922E-04  1557   0.647E-02
   6 F= -.71292473E+02 E0= -.71292473E+02  d E =-.590724E+00
       N       E                     dE             d eps       ncg     rms          rms(c)
DAV:   1    -0.712902298792E+02    0.22285E-02   -0.32827E+00  1792   0.871E+00    0.113E+00
RMM:   2    -0.713016288421E+02   -0.11399E-01   -0.13474E-01  2008   0.157E+00    0.248E-01
RMM:   3    -0.713013824609E+02    0.24638E-03   -0.17490E-02  2483   0.518E-01    0.173E-01
RMM:   4    -0.713013641653E+02    0.18296E-04   -0.59516E-03  2334   0.248E-01    0.510E-02
RMM:   5    -0.713015262141E+02   -0.16205E-03   -0.21427E-03  2457   0.152E-01    0.274E-02
RMM:   6    -0.713016268907E+02   -0.10068E-03   -0.10984E-03  2244   0.104E-01    0.106E-02
RMM:   7    -0.713016664725E+02   -0.39582E-04   -0.40629E-04  1947   0.725E-02    0.646E-03
RMM:   8    -0.713016762034E+02   -0.97309E-05   -0.12610E-04  1441   0.580E-02
   7 F= -.71301676E+02 E0= -.71301676E+02  d E =-.599927E+00
       N       E                     dE             d eps       ncg     rms          rms(c)
DAV:   1    -0.713947336912E+02   -0.93067E-01   -0.10213E+02  1536   0.480E+01    0.483E+00
RMM:   2    -0.716880945914E+02   -0.29336E+00   -0.44191E+00  1990   0.855E+00    0.199E+00
RMM:   3    -0.717481383827E+02   -0.60044E-01   -0.11739E+00  2477   0.329E+00    0.163E+00
RMM:   4    -0.717441525049E+02    0.39859E-02   -0.21801E-01  2339   0.156E+00    0.625E-01
RMM:   5    -0.717459047964E+02   -0.17523E-02   -0.58210E-02  2489   0.881E-01    0.182E-01
RMM:   6    -0.717474998376E+02   -0.15950E-02   -0.23134E-02  2538   0.535E-01    0.814E-02
RMM:   7    -0.717483950698E+02   -0.89523E-03   -0.10429E-02  2500   0.352E-01    0.328E-02
RMM:   8    -0.717489627706E+02   -0.56770E-03   -0.57834E-03  2471   0.248E-01    0.152E-02
RMM:   9    -0.717492246751E+02   -0.26190E-03   -0.25735E-03  2347   0.172E-01    0.805E-03
RMM:  10    -0.717493697546E+02   -0.14508E-03   -0.14906E-03  2291   0.129E-01    0.712E-03
RMM:  11    -0.717494426379E+02   -0.72883E-04   -0.74651E-04  2158   0.983E-02    0.484E-03
RMM:  12    -0.717494799806E+02   -0.37343E-04   -0.40041E-04  1868   0.780E-02    0.291E-03
RMM:  13    -0.717494968213E+02   -0.16841E-04   -0.19449E-04  1608   0.662E-02
   8 F= -.71749497E+02 E0= -.71749497E+02  d E =-.447821E+00
       N       E                     dE             d eps       ncg     rms          rms(c)
DAV:   1    -0.717072383164E+02    0.42242E-01   -0.48199E+01  1536   0.324E+01    0.329E+00
RMM:   2    -0.718275927283E+02   -0.12035E+00   -0.18795E+00  2000   0.576E+00    0.126E+00
RMM:   3    -0.718421718251E+02   -0.14579E-01   -0.40742E-01  2479   0.212E+00    0.988E-01
RMM:   4    -0.718389184516E+02    0.32534E-02   -0.83002E-02  2355   0.100E+00    0.352E-01
RMM:   5    -0.718400484724E+02   -0.11300E-02   -0.25496E-02  2518   0.582E-01    0.119E-01
RMM:   6    -0.718409038859E+02   -0.85541E-03   -0.11478E-02  2527   0.372E-01    0.481E-02
RMM:   7    -0.718413899959E+02   -0.48611E-03   -0.54864E-03  2487   0.254E-01    0.234E-02
RMM:   8    -0.718416857823E+02   -0.29579E-03   -0.30416E-03  2393   0.184E-01    0.103E-02
RMM:   9    -0.718418387991E+02   -0.15302E-03   -0.15674E-03  2329   0.135E-01    0.539E-03
RMM:  10    -0.718419266080E+02   -0.87809E-04   -0.90276E-04  2233   0.103E-01    0.524E-03
RMM:  11    -0.718419657377E+02   -0.39130E-04   -0.39963E-04  1826   0.788E-02    0.332E-03
RMM:  12    -0.718419827981E+02   -0.17060E-04   -0.19620E-04  1652   0.665E-02
   9 F= -.71841983E+02 E0= -.71841983E+02  d E =-.540307E+00
       N       E                     dE             d eps       ncg     rms          rms(c)
DAV:   1    -0.719431784173E+02   -0.10121E+00   -0.13198E+02  1536   0.539E+01    0.629E+00
RMM:   2    -0.721728374340E+02   -0.22966E+00   -0.51776E+00  1980   0.930E+00    0.197E+00
RMM:   3    -0.721971400074E+02   -0.24303E-01   -0.12200E+00  2416   0.338E+00    0.108E+00
RMM:   4    -0.721994539079E+02   -0.23139E-02   -0.24777E-01  2434   0.160E+00    0.494E-01
RMM:   5    -0.722016188224E+02   -0.21649E-02   -0.56381E-02  2541   0.871E-01    0.219E-01
RMM:   6    -0.722033614307E+02   -0.17426E-02   -0.23363E-02  2551   0.546E-01    0.449E-02
RMM:   7    -0.722044006239E+02   -0.10392E-02   -0.10649E-02  2513   0.357E-01    0.286E-02
RMM:   8    -0.722049361471E+02   -0.53552E-03   -0.53174E-03  2493   0.250E-01    0.140E-02
RMM:   9    -0.722052060172E+02   -0.26987E-03   -0.27130E-03  2379   0.179E-01    0.732E-03
RMM:  10    -0.722053526950E+02   -0.14668E-03   -0.14929E-03  2300   0.133E-01    0.725E-03
RMM:  11    -0.722054318603E+02   -0.79165E-04   -0.80055E-04  2192   0.101E-01    0.658E-03
RMM:  12    -0.722054685320E+02   -0.36672E-04   -0.37782E-04  1906   0.785E-02    0.240E-03
RMM:  13    -0.722054816127E+02   -0.13081E-04   -0.15101E-04  1529   0.658E-02
  10 F= -.72205482E+02 E0= -.72205482E+02  d E =-.363499E+00
       N       E                     dE             d eps       ncg     rms          rms(c)
DAV:   1    -0.722231535670E+02   -0.17685E-01   -0.22185E+01  1536   0.220E+01    0.221E+00
RMM:   2    -0.722465988035E+02   -0.23445E-01   -0.67352E-01  2016   0.366E+00    0.869E-01
RMM:   3    -0.722426343626E+02    0.39644E-02   -0.10927E-01  2447   0.125E+00    0.492E-01
RMM:   4    -0.722414604026E+02    0.11740E-02   -0.28409E-02  2450   0.574E-01    0.188E-01
RMM:   5    -0.722420352853E+02   -0.57488E-03   -0.95058E-03  2539   0.343E-01    0.830E-02
RMM:   6    -0.722424374061E+02   -0.40212E-03   -0.46100E-03  2485   0.233E-01    0.196E-02
RMM:   7    -0.722426522630E+02   -0.21486E-03   -0.21692E-03  2378   0.160E-01    0.126E-02
RMM:   8    -0.722427650453E+02   -0.11278E-03   -0.11432E-03  2382   0.118E-01    0.584E-03
RMM:   9    -0.722428199234E+02   -0.54878E-04   -0.55813E-04  2176   0.871E-02    0.274E-03
RMM:  10    -0.722428414794E+02   -0.21556E-04   -0.22738E-04  1724   0.680E-02    0.223E-03
RMM:  11    -0.722428473948E+02   -0.59153E-05   -0.84405E-05  1423   0.595E-02
  11 F= -.72242847E+02 E0= -.72242847E+02  d E =-.400865E+00
       N       E                     dE             d eps       ncg     rms          rms(c)
DAV:   1    -0.720590115390E+02    0.18383E+00   -0.13398E+02  1536   0.555E+01    0.654E+00
RMM:   2    -0.724227576484E+02   -0.36375E+00   -0.53785E+00  1985   0.958E+00    0.163E+00
RMM:   3    -0.724977514487E+02   -0.74994E-01   -0.14077E+00  2467   0.351E+00    0.112E+00
RMM:   4    -0.725029696212E+02   -0.52182E-02   -0.29607E-01  2421   0.174E+00    0.527E-01
RMM:   5    -0.725056379248E+02   -0.26683E-02   -0.66859E-02  2534   0.960E-01    0.210E-01
RMM:   6    -0.725078615617E+02   -0.22236E-02   -0.28454E-02  2588   0.612E-01    0.464E-02
RMM:   7    -0.725091001942E+02   -0.12386E-02   -0.12764E-02  2519   0.401E-01    0.242E-02
RMM:   8    -0.725097651748E+02   -0.66498E-03   -0.66301E-03  2545   0.284E-01    0.133E-02
RMM:   9    -0.725101084149E+02   -0.34324E-03   -0.34448E-03  2432   0.203E-01    0.722E-03
RMM:  10    -0.725102958336E+02   -0.18742E-03   -0.18901E-03  2344   0.150E-01    0.448E-03
RMM:  11    -0.725103976500E+02   -0.10182E-03   -0.10227E-03  2294   0.113E-01    0.295E-03
RMM:  12    -0.725104491940E+02   -0.51544E-04   -0.52100E-04  2079   0.865E-02    0.164E-03
RMM:  13    -0.725104705332E+02   -0.21339E-04   -0.22686E-04  1663   0.698E-02    0.119E-03
RMM:  14    -0.725104771409E+02   -0.66077E-05   -0.94002E-05  1437   0.621E-02
  12 F= -.72510477E+02 E0= -.72510477E+02  d E =-.267630E+00
       N       E                     dE             d eps       ncg     rms          rms(c)
DAV:   1    -0.724913204209E+02    0.19150E-01   -0.22227E+01  1536   0.225E+01    0.246E+00
RMM:   2    -0.725362861407E+02   -0.44966E-01   -0.69952E-01  2001   0.375E+00    0.664E-01
RMM:   3    -0.725350348578E+02    0.12513E-02   -0.10737E-01  2460   0.126E+00    0.416E-01
RMM:   4    -0.725340287942E+02    0.10061E-02   -0.32339E-02  2361   0.620E-01    0.140E-01
RMM:   5    -0.725347106751E+02   -0.68188E-03   -0.10440E-02  2502   0.370E-01    0.765E-02
RMM:   6    -0.725351942130E+02   -0.48354E-03   -0.54868E-03  2513   0.256E-01    0.223E-02
RMM:   7    -0.725354379103E+02   -0.24370E-03   -0.25588E-03  2433   0.177E-01    0.132E-02
RMM:   8    -0.725355758548E+02   -0.13794E-03   -0.14346E-03  2323   0.130E-01    0.563E-03
RMM:   9    -0.725356513925E+02   -0.75538E-04   -0.76356E-04  2289   0.968E-02    0.390E-03
RMM:  10    -0.725356842784E+02   -0.32886E-04   -0.33706E-04  1905   0.736E-02    0.109E-03
RMM:  11    -0.725356948760E+02   -0.10598E-04   -0.12759E-04  1517   0.613E-02
  13 F= -.72535695E+02 E0= -.72535695E+02  d E =-.292847E+00
       N       E                     dE             d eps       ncg     rms          rms(c)
DAV:   1    -0.721971942409E+02    0.33849E+00   -0.14890E+02  1536   0.590E+01    0.526E+00
RMM:   2    -0.725943264603E+02   -0.39713E+00   -0.59217E+00  2031   0.963E+00    0.188E+00
RMM:   3    -0.727413543401E+02   -0.14703E+00   -0.20409E+00  2462   0.401E+00    0.122E+00
RMM:   4    -0.727558603693E+02   -0.14506E-01   -0.39950E-01  2473   0.207E+00    0.564E-01
RMM:   5    -0.727595441222E+02   -0.36838E-02   -0.91963E-02  2546   0.115E+00    0.163E-01
RMM:   6    -0.727630230455E+02   -0.34789E-02   -0.40781E-02  2611   0.724E-01    0.630E-02
RMM:   7    -0.727647527307E+02   -0.17297E-02   -0.17446E-02  2493   0.466E-01    0.238E-02
RMM:   8    -0.727655901584E+02   -0.83743E-03   -0.82482E-03  2590   0.322E-01    0.165E-02
RMM:   9    -0.727660210831E+02   -0.43092E-03   -0.44193E-03  2471   0.230E-01    0.549E-03
RMM:  10    -0.727662578952E+02   -0.23681E-03   -0.23999E-03  2410   0.168E-01    0.545E-03
RMM:  11    -0.727663840348E+02   -0.12614E-03   -0.12779E-03  2354   0.125E-01    0.303E-03
RMM:  12    -0.727664492850E+02   -0.65250E-04   -0.66645E-04  2137   0.948E-02    0.148E-03
RMM:  13    -0.727664795756E+02   -0.30291E-04   -0.31619E-04  1789   0.748E-02    0.201E-03
RMM:  14    -0.727664901066E+02   -0.10531E-04   -0.13062E-04  1500   0.643E-02
  14 F= -.72766490E+02 E0= -.72766490E+02  d E =-.230795E+00
       N       E                     dE             d eps       ncg     rms          rms(c)
DAV:   1    -0.726927280875E+02    0.73751E-01   -0.43575E+01  1536   0.315E+01    0.264E+00
RMM:   2    -0.727769306545E+02   -0.84203E-01   -0.13182E+00  2041   0.498E+00    0.941E-01
RMM:   3    -0.727930403100E+02   -0.16110E-01   -0.31508E-01  2475   0.191E+00    0.582E-01
RMM:   4    -0.727933022534E+02   -0.26194E-03   -0.70748E-02  2465   0.979E-01    0.220E-01
RMM:   5    -0.727950819831E+02   -0.17797E-02   -0.25600E-02  2560   0.587E-01    0.829E-02
RMM:   6    -0.727962410840E+02   -0.11591E-02   -0.12696E-02  2615   0.391E-01    0.273E-02
RMM:   7    -0.727968007529E+02   -0.55967E-03   -0.55991E-03  2509   0.262E-01    0.138E-02
RMM:   8    -0.727970915741E+02   -0.29082E-03   -0.29943E-03  2456   0.189E-01    0.844E-03
RMM:   9    -0.727972421689E+02   -0.15059E-03   -0.15517E-03  2435   0.138E-01    0.306E-03
RMM:  10    -0.727973248318E+02   -0.82663E-04   -0.84824E-04  2285   0.103E-01    0.312E-03
RMM:  11    -0.727973592685E+02   -0.34437E-04   -0.35468E-04  1888   0.775E-02    0.197E-03
RMM:  12    -0.727973711134E+02   -0.11845E-04   -0.14334E-04  1519   0.648E-02
  15 F= -.72797371E+02 E0= -.72797371E+02  d E =-.261676E+00
       N       E                     dE             d eps       ncg     rms          rms(c)
DAV:   1    -0.720877381268E+02    0.70962E+00   -0.18247E+02  1536   0.656E+01    0.543E+00
RMM:   2    -0.727476664239E+02   -0.65993E+00   -0.80892E+00  2045   0.113E+01    0.151E+00
RMM:   3    -0.729732600845E+02   -0.22559E+00   -0.26313E+00  2520   0.463E+00    0.947E-01
RMM:   4    -0.730103265733E+02   -0.37066E-01   -0.55439E-01  2532   0.237E+00    0.524E-01
RMM:   5    -0.730179618199E+02   -0.76352E-02   -0.13060E-01  2566   0.132E+00    0.191E-01
RMM:   6    -0.730233108368E+02   -0.53490E-02   -0.59772E-02  2570   0.841E-01    0.535E-02
RMM:   7    -0.730254254333E+02   -0.21146E-02   -0.20434E-02  2515   0.503E-01    0.307E-02
RMM:   8    -0.730263739961E+02   -0.94856E-03   -0.96312E-03  2626   0.341E-01    0.168E-02
RMM:   9    -0.730268249062E+02   -0.45091E-03   -0.46610E-03  2485   0.233E-01    0.626E-03
RMM:  10    -0.730270607962E+02   -0.23589E-03   -0.24108E-03  2411   0.165E-01    0.697E-03
RMM:  11    -0.730271758807E+02   -0.11508E-03   -0.11769E-03  2303   0.119E-01    0.405E-03
RMM:  12    -0.730272319238E+02   -0.56043E-04   -0.58536E-04  2036   0.892E-02    0.198E-03
RMM:  13    -0.730272535691E+02   -0.21645E-04   -0.23456E-04  1603   0.707E-02    0.217E-03
RMM:  14    -0.730272608718E+02   -0.73027E-05   -0.10395E-04  1426   0.627E-02
  16 F= -.73027261E+02 E0= -.73027261E+02  d E =-.229890E+00
       N       E                     dE             d eps       ncg     rms          rms(c)
DAV:   1    -0.729902014570E+02    0.37052E-01   -0.16117E+01  1552   0.193E+01    0.127E+00
RMM:   2    -0.730308526137E+02   -0.40651E-01   -0.49185E-01  2055   0.316E+00    0.435E-01
RMM:   3    -0.730366390325E+02   -0.57864E-02   -0.86359E-02  2523   0.113E+00    0.254E-01
RMM:   4    -0.730377455560E+02   -0.11065E-02   -0.26346E-02  2503   0.558E-01    0.800E-02
RMM:   5    -0.730387372514E+02   -0.99170E-03   -0.11363E-02  2522   0.350E-01    0.414E-02
RMM:   6    -0.730392531633E+02   -0.51591E-03   -0.53858E-03  2530   0.239E-01    0.171E-02
RMM:   7    -0.730394647900E+02   -0.21163E-03   -0.20864E-03  2435   0.153E-01    0.939E-03
RMM:   8    -0.730395639153E+02   -0.99125E-04   -0.10417E-03  2373   0.109E-01    0.422E-03
RMM:   9    -0.730396033026E+02   -0.39387E-04   -0.40721E-04  1912   0.778E-02    0.278E-03
RMM:  10    -0.730396128846E+02   -0.95820E-05   -0.12231E-04  1472   0.633E-02
  17 F= -.73039613E+02 E0= -.73039613E+02  d E =-.242242E+00
       N       E                     dE             d eps       ncg     rms          rms(c)
DAV:   1    -0.723759541073E+02    0.66365E+00   -0.16592E+02  1536   0.629E+01    0.511E+00
RMM:   2    -0.730282906503E+02   -0.65234E+00   -0.78361E+00  2052   0.113E+01    0.149E+00
RMM:   3    -0.732229421991E+02   -0.19465E+00   -0.22877E+00  2529   0.455E+00    0.116E+00
RMM:   4    -0.732490640811E+02   -0.26122E-01   -0.46991E-01  2531   0.227E+00    0.615E-01
RMM:   5    -0.732562391332E+02   -0.71751E-02   -0.12205E-01  2538   0.127E+00    0.172E-01
RMM:   6    -0.732611070528E+02   -0.48679E-02   -0.54460E-02  2628   0.805E-01    0.598E-02
RMM:   7    -0.732632590837E+02   -0.21520E-02   -0.22199E-02  2531   0.503E-01    0.406E-02
RMM:   8    -0.732642361238E+02   -0.97704E-03   -0.10028E-02  2628   0.336E-01    0.309E-02
RMM:   9    -0.732646546609E+02   -0.41854E-03   -0.46651E-03  2504   0.233E-01    0.191E-02
RMM:  10    -0.732648820182E+02   -0.22736E-03   -0.25554E-03  2423   0.163E-01    0.716E-03
RMM:  11    -0.732650058455E+02   -0.12383E-03   -0.13023E-03  2316   0.118E-01    0.442E-03
RMM:  12    -0.732650657448E+02   -0.59899E-04   -0.61990E-04  1966   0.869E-02    0.345E-03
RMM:  13    -0.732650878548E+02   -0.22110E-04   -0.24041E-04  1634   0.678E-02    0.249E-03
RMM:  14    -0.732650937780E+02   -0.59232E-05   -0.89876E-05  1364   0.596E-02
  18 F= -.73265094E+02 E0= -.73265094E+02  d E =-.225481E+00
       N       E                     dE             d eps       ncg     rms          rms(c)
DAV:   1    -0.730805595359E+02    0.18453E+00   -0.53817E+01  1536   0.356E+01    0.270E+00
RMM:   2    -0.732526501797E+02   -0.17209E+00   -0.20595E+00  2057   0.622E+00    0.781E-01
RMM:   3    -0.732861376822E+02   -0.33488E-01   -0.42807E-01  2531   0.230E+00    0.550E-01
RMM:   4    -0.732898701342E+02   -0.37325E-02   -0.10497E-01  2497   0.114E+00    0.226E-01
RMM:   5    -0.732930907276E+02   -0.32206E-02   -0.39519E-02  2544   0.676E-01    0.866E-02
RMM:   6    -0.732946567522E+02   -0.15660E-02   -0.17554E-02  2624   0.446E-01    0.327E-02
RMM:   7    -0.732953783204E+02   -0.72157E-03   -0.77759E-03  2535   0.291E-01    0.185E-02
RMM:   8    -0.732957486479E+02   -0.37033E-03   -0.39265E-03  2448   0.200E-01    0.814E-03
RMM:   9    -0.732959163735E+02   -0.16773E-03   -0.17239E-03  2426   0.136E-01    0.731E-03
RMM:  10    -0.732959947561E+02   -0.78383E-04   -0.82871E-04  2187   0.970E-02    0.328E-03
RMM:  11    -0.732960242903E+02   -0.29534E-04   -0.31707E-04  1680   0.723E-02    0.133E-03
RMM:  12    -0.732960335839E+02   -0.92936E-05   -0.12141E-04  1469   0.612E-02
  19 F= -.73296034E+02 E0= -.73296034E+02  d E =-.256421E+00
       N       E                     dE             d eps       ncg     rms          rms(c)
DAV:   1    -0.729051684226E+02    0.39086E+00   -0.10969E+02  1536   0.499E+01    0.422E+00
RMM:   2    -0.733946676547E+02   -0.48950E+00   -0.56060E+00  2012   0.955E+00    0.136E+00
RMM:   3    -0.734710287866E+02   -0.76361E-01   -0.12381E+00  2520   0.372E+00    0.138E+00
RMM:   4    -0.734831313157E+02   -0.12103E-01   -0.27614E-01  2549   0.179E+00    0.848E-01
RMM:   5    -0.734890025858E+02   -0.58713E-02   -0.97833E-02  2429   0.105E+00    0.176E-01
RMM:   6    -0.734932102312E+02   -0.42076E-02   -0.45299E-02  2574   0.678E-01    0.781E-02
RMM:   7    -0.734949792826E+02   -0.17691E-02   -0.18719E-02  2472   0.419E-01    0.443E-02
RMM:   8    -0.734957056539E+02   -0.72637E-03   -0.73325E-03  2584   0.270E-01    0.327E-02
RMM:   9    -0.734959934293E+02   -0.28778E-03   -0.32168E-03  2452   0.183E-01    0.227E-02
RMM:  10    -0.734961470923E+02   -0.15366E-03   -0.16787E-03  2233   0.125E-01    0.651E-03
RMM:  11    -0.734962177658E+02   -0.70674E-04   -0.75412E-04  2014   0.907E-02    0.427E-03
RMM:  12    -0.734962473398E+02   -0.29574E-04   -0.32343E-04  1603   0.700E-02    0.270E-03
RMM:  13    -0.734962572839E+02   -0.99441E-05   -0.12917E-04  1444   0.598E-02
  20 F= -.73496257E+02 E0= -.73496257E+02  d E =-.200224E+00
       N       E                     dE             d eps       ncg     rms          rms(c)
DAV:   1    -0.731759366010E+02    0.32031E+00   -0.74235E+01  1536   0.409E+01    0.326E+00
RMM:   2    -0.734891692585E+02   -0.31323E+00   -0.35820E+00  2024   0.780E+00    0.105E+00
RMM:   3    -0.735313711087E+02   -0.42202E-01   -0.71177E-01  2518   0.295E+00    0.101E+00
RMM:   4    -0.735380522453E+02   -0.66811E-02   -0.17381E-01  2531   0.142E+00    0.567E-01
RMM:   5    -0.735428061917E+02   -0.47539E-02   -0.66043E-02  2450   0.839E-01    0.138E-01
RMM:   6    -0.735454322757E+02   -0.26261E-02   -0.29372E-02  2586   0.546E-01    0.454E-02
RMM:   7    -0.735466505471E+02   -0.12183E-02   -0.12829E-02  2527   0.344E-01    0.352E-02
RMM:   8    -0.735471518909E+02   -0.50134E-03   -0.51857E-03  2560   0.223E-01    0.228E-02
RMM:   9    -0.735473543044E+02   -0.20241E-03   -0.22925E-03  2380   0.151E-01    0.120E-02
RMM:  10    -0.735474614940E+02   -0.10719E-03   -0.11913E-03  2180   0.105E-01    0.675E-03
RMM:  11    -0.735475053572E+02   -0.43863E-04   -0.48146E-04  1793   0.772E-02    0.260E-03
RMM:  12    -0.735475222808E+02   -0.16924E-04   -0.20134E-04  1495   0.626E-02    0.199E-03
RMM:  13    -0.735475270033E+02   -0.47224E-05   -0.79195E-05  1345   0.563E-02
  21 F= -.73547527E+02 E0= -.73547527E+02  d E =-.251493E+00
       N       E                     dE             d eps       ncg     rms          rms(c)
DAV:   1    -0.734594946987E+02    0.88028E-01   -0.65865E+01  1536   0.365E+01    0.507E+00
RMM:   2    -0.737102681961E+02   -0.25077E+00   -0.35831E+00  1959   0.774E+00    0.134E+00
RMM:   3    -0.737195394332E+02   -0.92712E-02   -0.57483E-01  2444   0.271E+00    0.123E+00
RMM:   4    -0.737187384781E+02    0.80096E-03   -0.16550E-01  2366   0.130E+00    0.550E-01
RMM:   5    -0.737234009203E+02   -0.46624E-02   -0.63330E-02  2455   0.764E-01    0.207E-01
RMM:   6    -0.737254401201E+02   -0.20392E-02   -0.27043E-02  2519   0.490E-01    0.640E-02
RMM:   7    -0.737264118339E+02   -0.97171E-03   -0.11359E-02  2423   0.313E-01    0.388E-02
RMM:   8    -0.737268869605E+02   -0.47513E-03   -0.51105E-03  2348   0.206E-01    0.159E-02
RMM:   9    -0.737270641483E+02   -0.17719E-03   -0.19649E-03  2367   0.135E-01    0.105E-02
RMM:  10    -0.737271448459E+02   -0.80698E-04   -0.87006E-04  2044   0.921E-02    0.645E-03
RMM:  11    -0.737271701477E+02   -0.25302E-04   -0.28297E-04  1669   0.674E-02    0.433E-03
RMM:  12    -0.737271756597E+02   -0.55120E-05   -0.89004E-05  1333   0.566E-02
  22 F= -.73727176E+02 E0= -.73727176E+02  d E =-.179649E+00
       N       E                     dE             d eps       ncg     rms          rms(c)
DAV:   1    -0.736915969881E+02    0.35573E-01   -0.15597E+01  1632   0.178E+01    0.207E+00
RMM:   2    -0.737481774706E+02   -0.56580E-01   -0.80321E-01  1963   0.370E+00    0.659E-01
RMM:   3    -0.737483633980E+02   -0.18593E-03   -0.11697E-01  2479   0.128E+00    0.547E-01
RMM:   4    -0.737480653232E+02    0.29807E-03   -0.38900E-02  2353   0.597E-01    0.216E-01
RMM:   5    -0.737492977646E+02   -0.12324E-02   -0.15480E-02  2465   0.361E-01    0.938E-02
RMM:   6    -0.737498020183E+02   -0.50425E-03   -0.69744E-03  2358   0.238E-01    0.409E-02
RMM:   7    -0.737499916725E+02   -0.18965E-03   -0.28717E-03  2329   0.158E-01    0.205E-02
RMM:   8    -0.737501141655E+02   -0.12249E-03   -0.13311E-03  2200   0.105E-01    0.660E-03
RMM:   9    -0.737501523255E+02   -0.38160E-04   -0.42572E-04  1842   0.702E-02    0.416E-03
RMM:  10    -0.737501612861E+02   -0.89606E-05   -0.12044E-04  1422   0.543E-02
  23 F= -.73750161E+02 E0= -.73750161E+02  d E =-.202634E+00
       N       E                     dE             d eps       ncg     rms          rms(c)
DAV:   1    -0.737625296185E+02   -0.12377E-01   -0.63751E+01  1536   0.342E+01    0.531E+00
RMM:   2    -0.739571331691E+02   -0.19460E+00   -0.33979E+00  1923   0.746E+00    0.158E+00
RMM:   3    -0.739480112781E+02    0.91219E-02   -0.46689E-01  2422   0.240E+00    0.151E+00
RMM:   4    -0.739411162815E+02    0.68950E-02   -0.12341E-01  2282   0.109E+00    0.672E-01
RMM:   5    -0.739435792004E+02   -0.24629E-02   -0.44123E-02  2407   0.641E-01    0.221E-01
RMM:   6    -0.739447597799E+02   -0.11806E-02   -0.19744E-02  2462   0.410E-01    0.786E-02
RMM:   7    -0.739453581997E+02   -0.59842E-03   -0.76050E-03  2366   0.251E-01    0.391E-02
RMM:   8    -0.739456620359E+02   -0.30384E-03   -0.31849E-03  2263   0.161E-01    0.164E-02
RMM:   9    -0.739457602441E+02   -0.98208E-04   -0.12012E-03  2298   0.107E-01    0.828E-03
RMM:  10    -0.739458003697E+02   -0.40126E-04   -0.44054E-04  1769   0.727E-02    0.368E-03
RMM:  11    -0.739458083547E+02   -0.79850E-05   -0.10785E-04  1371   0.570E-02
  24 F= -.73945808E+02 E0= -.73945808E+02  d E =-.195647E+00
       N       E                     dE             d eps       ncg     rms          rms(c)
DAV:   1    -0.738715366691E+02    0.74264E-01   -0.49138E+01  1536   0.300E+01    0.449E+00
RMM:   2    -0.740131907320E+02   -0.14165E+00   -0.25395E+00  1924   0.650E+00    0.138E+00
RMM:   3    -0.740041348273E+02    0.90559E-02   -0.33141E-01  2420   0.206E+00    0.126E+00
RMM:   4    -0.739985060327E+02    0.56288E-02   -0.91611E-02  2243   0.935E-01    0.537E-01
RMM:   5    -0.740004523687E+02   -0.19463E-02   -0.32877E-02  2417   0.554E-01    0.199E-01
RMM:   6    -0.740013920194E+02   -0.93965E-03   -0.15391E-02  2435   0.360E-01    0.736E-02
RMM:   7    -0.740018015570E+02   -0.40954E-03   -0.58605E-03  2360   0.222E-01    0.338E-02
RMM:   8    -0.740020467074E+02   -0.24515E-03   -0.25465E-03  2235   0.143E-01    0.149E-02
RMM:   9    -0.740021263049E+02   -0.79598E-04   -0.96673E-04  2277   0.952E-02    0.659E-03
RMM:  10    -0.740021515038E+02   -0.25199E-04   -0.27899E-04  1567   0.650E-02    0.319E-03
RMM:  11    -0.740021586968E+02   -0.71931E-05   -0.10237E-04  1352   0.544E-02
  25 F= -.74002159E+02 E0= -.74002159E+02  d E =-.251997E+00
       N       E                     dE             d eps       ncg     rms          rms(c)
DAV:   1    -0.739495169986E+02    0.52635E-01   -0.64203E+01  1536   0.365E+01    0.540E+00
RMM:   2    -0.741669869253E+02   -0.21747E+00   -0.31540E+00  1963   0.738E+00    0.137E+00
RMM:   3    -0.741645983673E+02    0.23886E-02   -0.46235E-01  2499   0.247E+00    0.152E+00
RMM:   4    -0.741604290665E+02    0.41693E-02   -0.11537E-01  2423   0.110E+00    0.747E-01
RMM:   5    -0.741622330133E+02   -0.18039E-02   -0.43158E-02  2438   0.666E-01    0.186E-01
RMM:   6    -0.741635687073E+02   -0.13357E-02   -0.18476E-02  2557   0.428E-01    0.511E-02
RMM:   7    -0.741643262245E+02   -0.75752E-03   -0.80400E-03  2470   0.268E-01    0.305E-02
RMM:   8    -0.741646199991E+02   -0.29377E-03   -0.30459E-03  2434   0.171E-01    0.148E-02
RMM:   9    -0.741647333319E+02   -0.11333E-03   -0.12607E-03  2303   0.113E-01    0.592E-03
RMM:  10    -0.741647772652E+02   -0.43933E-04   -0.46775E-04  1827   0.782E-02    0.357E-03
RMM:  11    -0.741647868580E+02   -0.95928E-05   -0.11970E-04  1369   0.618E-02
  26 F= -.74164787E+02 E0= -.74164787E+02  d E =-.162628E+00
       N       E                     dE             d eps       ncg     rms          rms(c)
DAV:   1    -0.740643664300E+02    0.10041E+00   -0.44912E+01  1536   0.306E+01    0.432E+00
RMM:   2    -0.742128893140E+02   -0.14852E+00   -0.21543E+00  1966   0.615E+00    0.110E+00
RMM:   3    -0.742075144126E+02    0.53749E-02   -0.29262E-01  2473   0.203E+00    0.118E+00
RMM:   4    -0.742042763233E+02    0.32381E-02   -0.78756E-02  2398   0.901E-01    0.559E-01
RMM:   5    -0.742056690661E+02   -0.13927E-02   -0.29930E-02  2451   0.552E-01    0.154E-01
RMM:   6    -0.742065950349E+02   -0.92597E-03   -0.12849E-02  2548   0.354E-01    0.439E-02
RMM:   7    -0.742071182617E+02   -0.52323E-03   -0.55862E-03  2431   0.225E-01    0.255E-02
RMM:   8    -0.742073272241E+02   -0.20896E-03   -0.21796E-03  2388   0.145E-01    0.127E-02
RMM:   9    -0.742074083279E+02   -0.81104E-04   -0.93066E-04  2290   0.980E-02    0.506E-03
RMM:  10    -0.742074321416E+02   -0.23814E-04   -0.26355E-04  1590   0.688E-02    0.298E-03
RMM:  11    -0.742074367384E+02   -0.45968E-05   -0.76197E-05  1321   0.590E-02
  27 F= -.74207437E+02 E0= -.74207437E+02  d E =-.205278E+00
       N       E                     dE             d eps       ncg     rms          rms(c)
DAV:   1    -0.742219456068E+02   -0.14513E-01   -0.54337E+01  1536   0.336E+01    0.437E+00
RMM:   2    -0.743571559628E+02   -0.13521E+00   -0.24889E+00  1971   0.659E+00    0.126E+00
RMM:   3    -0.743444512303E+02    0.12705E-01   -0.33820E-01  2460   0.216E+00    0.126E+00
RMM:   4    -0.743412729937E+02    0.31782E-02   -0.88533E-02  2436   0.949E-01    0.576E-01
RMM:   5    -0.743429355459E+02   -0.16626E-02   -0.31889E-02  2505   0.572E-01    0.180E-01
RMM:   6    -0.743439332002E+02   -0.99765E-03   -0.13918E-02  2555   0.370E-01    0.622E-02
RMM:   7    -0.743444871025E+02   -0.55390E-03   -0.60594E-03  2446   0.237E-01    0.305E-02
RMM:   8    -0.743447259803E+02   -0.23888E-03   -0.25249E-03  2397   0.156E-01    0.108E-02
RMM:   9    -0.743448272287E+02   -0.10125E-03   -0.11205E-03  2339   0.106E-01    0.625E-03
RMM:  10    -0.743448624462E+02   -0.35218E-04   -0.38501E-04  1757   0.741E-02    0.458E-03
RMM:  11    -0.743448722664E+02   -0.98202E-05   -0.13158E-04  1455   0.605E-02
  28 F= -.74344872E+02 E0= -.74344872E+02  d E =-.137436E+00
       N       E                     dE             d eps       ncg     rms          rms(c)
DAV:   1    -0.743235490847E+02    0.21313E-01   -0.23873E+01  1568   0.223E+01    0.259E+00
RMM:   2    -0.743795137426E+02   -0.55965E-01   -0.10383E+00  1978   0.432E+00    0.793E-01
RMM:   3    -0.743718946747E+02    0.76191E-02   -0.13063E-01  2442   0.140E+00    0.704E-01
RMM:   4    -0.743705684591E+02    0.13262E-02   -0.38193E-02  2414   0.619E-01    0.317E-01
RMM:   5    -0.743714458935E+02   -0.87743E-03   -0.14393E-02  2509   0.376E-01    0.120E-01
RMM:   6    -0.743719257905E+02   -0.47990E-03   -0.61520E-03  2466   0.242E-01    0.407E-02
RMM:   7    -0.743721668197E+02   -0.24103E-03   -0.26556E-03  2417   0.157E-01    0.200E-02
RMM:   8    -0.743722704132E+02   -0.10359E-03   -0.11109E-03  2349   0.105E-01    0.704E-03
RMM:   9    -0.743723047941E+02   -0.34381E-04   -0.39225E-04  1909   0.720E-02    0.321E-03
RMM:  10    -0.743723137213E+02   -0.89271E-05   -0.11820E-04  1484   0.570E-02
  29 F= -.74372314E+02 E0= -.74372314E+02  d E =-.164877E+00
       N       E                     dE             d eps       ncg     rms          rms(c)
DAV:   1    -0.744037174901E+02   -0.31413E-01   -0.23786E+01  1536   0.233E+01    0.331E+00
RMM:   2    -0.744830668828E+02   -0.79349E-01   -0.11214E+00  1969   0.457E+00    0.823E-01
RMM:   3    -0.744775168590E+02    0.55500E-02   -0.12944E-01  2502   0.143E+00    0.758E-01
RMM:   4    -0.744751897706E+02    0.23271E-02   -0.40925E-02  2357   0.636E-01    0.255E-01
RMM:   5    -0.744763029171E+02   -0.11131E-02   -0.15018E-02  2511   0.379E-01    0.104E-01
RMM:   6    -0.744767249654E+02   -0.42205E-03   -0.69698E-03  2518   0.253E-01    0.335E-02
RMM:   7    -0.744769705975E+02   -0.24563E-03   -0.29001E-03  2397   0.163E-01    0.206E-02
RMM:   8    -0.744770867780E+02   -0.11618E-03   -0.12922E-03  2359   0.111E-01    0.772E-03
RMM:   9    -0.744771322080E+02   -0.45430E-04   -0.50427E-04  2006   0.754E-02    0.371E-03
RMM:  10    -0.744771382269E+02   -0.60189E-05   -0.88628E-05  1349   0.565E-02
  30 F= -.74477138E+02 E0= -.74477138E+02  d E =-.104825E+00
       N       E                     dE             d eps       ncg     rms          rms(c)
DAV:   1    -0.744702062678E+02    0.69259E-02   -0.70126E+00  1760   0.127E+01    0.170E+00
RMM:   2    -0.744932942191E+02   -0.23088E-01   -0.32594E-01  1969   0.248E+00    0.448E-01
RMM:   3    -0.744917323129E+02    0.15619E-02   -0.37465E-02  2458   0.779E-01    0.391E-01
RMM:   4    -0.744910687979E+02    0.66352E-03   -0.12807E-02  2316   0.355E-01    0.123E-01
RMM:   5    -0.744914480603E+02   -0.37926E-03   -0.48896E-03  2534   0.217E-01    0.552E-02
RMM:   6    -0.744915838766E+02   -0.13582E-03   -0.21676E-03  2348   0.141E-01    0.189E-02
RMM:   7    -0.744916625341E+02   -0.78657E-04   -0.92168E-04  2314   0.951E-02    0.106E-02
RMM:   8    -0.744916870602E+02   -0.24526E-04   -0.29368E-04  1760   0.664E-02    0.422E-03
RMM:   9    -0.744916933395E+02   -0.62793E-05   -0.97265E-05  1459   0.544E-02
  31 F= -.74491693E+02 E0= -.74491693E+02  d E =-.119380E+00
       N       E                     dE             d eps       ncg     rms          rms(c)
DAV:   1    -0.745142686969E+02   -0.22582E-01   -0.11741E+01  1552   0.158E+01    0.233E+00
RMM:   2    -0.745604883164E+02   -0.46220E-01   -0.62747E-01  1942   0.331E+00    0.692E-01
RMM:   3    -0.745552007192E+02    0.52876E-02   -0.71736E-02  2476   0.105E+00    0.595E-01
RMM:   4    -0.745534602460E+02    0.17405E-02   -0.24777E-02  2277   0.496E-01    0.174E-01
RMM:   5    -0.745540868773E+02   -0.62663E-03   -0.85054E-03  2549   0.282E-01    0.782E-02
RMM:   6    -0.745542773753E+02   -0.19050E-03   -0.37462E-03  2347   0.179E-01    0.330E-02
RMM:   7    -0.745543830672E+02   -0.10569E-03   -0.14711E-03  2340   0.114E-01    0.194E-02
RMM:   8    -0.745544374313E+02   -0.54364E-04   -0.62420E-04  2205   0.771E-02    0.564E-03
RMM:   9    -0.745544419252E+02   -0.44939E-05   -0.84398E-05  1283   0.531E-02
  32 F= -.74554442E+02 E0= -.74554442E+02  d E =-.627486E-01
       N       E                     dE             d eps       ncg     rms          rms(c)
DAV:   1    -0.745356812613E+02    0.18756E-01   -0.91818E+00  1568   0.140E+01    0.207E+00
RMM:   2    -0.745712462725E+02   -0.35565E-01   -0.48692E-01  1941   0.292E+00    0.602E-01
RMM:   3    -0.745673842080E+02    0.38621E-02   -0.55824E-02  2482   0.926E-01    0.514E-01
RMM:   4    -0.745660570439E+02    0.13272E-02   -0.19371E-02  2283   0.438E-01    0.152E-01
RMM:   5    -0.745665550981E+02   -0.49805E-03   -0.67369E-03  2514   0.251E-01    0.695E-02
RMM:   6    -0.745667136808E+02   -0.15858E-03   -0.29836E-03  2335   0.161E-01    0.289E-02
RMM:   7    -0.745667988512E+02   -0.85170E-04   -0.11808E-03  2322   0.103E-01    0.169E-02
RMM:   8    -0.745668390361E+02   -0.40185E-04   -0.46494E-04  2038   0.701E-02    0.461E-03
RMM:   9    -0.745668405593E+02   -0.15233E-05   -0.50895E-05  1246   0.507E-02
  33 F= -.74566841E+02 E0= -.74566841E+02  d E =-.751472E-01
       N       E                     dE             d eps       ncg     rms          rms(c)
DAV:   1    -0.745703057914E+02   -0.34668E-02   -0.12518E+01  1536   0.162E+01    0.193E+00
RMM:   2    -0.746195190776E+02   -0.49213E-01   -0.63554E-01  1925   0.336E+00    0.635E-01
RMM:   3    -0.746166774729E+02    0.28416E-02   -0.71096E-02  2457   0.104E+00    0.608E-01
RMM:   4    -0.746153617366E+02    0.13157E-02   -0.21594E-02  2345   0.463E-01    0.227E-01
RMM:   5    -0.746159595751E+02   -0.59784E-03   -0.76887E-03  2486   0.268E-01    0.834E-02
RMM:   6    -0.746160789111E+02   -0.11934E-03   -0.36456E-03  2362   0.177E-01    0.276E-02
RMM:   7    -0.746161892132E+02   -0.11030E-03   -0.13485E-03  2331   0.109E-01    0.174E-02
RMM:   8    -0.746162375932E+02   -0.48380E-04   -0.53980E-04  2067   0.731E-02    0.621E-03
RMM:   9    -0.746162382573E+02   -0.66411E-06   -0.47585E-05  1282   0.522E-02
  34 F= -.74616238E+02 E0= -.74616238E+02  d E =-.493977E-01
       N       E                     dE             d eps       ncg     rms          rms(c)
DAV:   1    -0.745609655007E+02    0.55272E-01   -0.20404E+01  1536   0.206E+01    0.251E+00
RMM:   2    -0.746412958861E+02   -0.80330E-01   -0.10373E+00  1925   0.430E+00    0.834E-01
RMM:   3    -0.746377947548E+02    0.35011E-02   -0.11924E-01  2460   0.134E+00    0.807E-01
RMM:   4    -0.746355370984E+02    0.22577E-02   -0.35203E-02  2340   0.598E-01    0.305E-01
RMM:   5    -0.746364839616E+02   -0.94686E-03   -0.12470E-02  2485   0.347E-01    0.107E-01
RMM:   6    -0.746366628154E+02   -0.17885E-03   -0.60815E-03  2415   0.230E-01    0.343E-02
RMM:   7    -0.746368461032E+02   -0.18329E-03   -0.22441E-03  2345   0.142E-01    0.232E-02
RMM:   8    -0.746369323714E+02   -0.86268E-04   -0.95263E-04  2214   0.947E-02    0.805E-03
RMM:   9    -0.746369554797E+02   -0.23108E-04   -0.28488E-04  1754   0.655E-02    0.357E-03
RMM:  10    -0.746369610622E+02   -0.55825E-05   -0.88586E-05  1391   0.533E-02
  35 F= -.74636961E+02 E0= -.74636961E+02  d E =-.701205E-01
       N       E                     dE             d eps       ncg     rms          rms(c)
DAV:   1    -0.746445817611E+02   -0.76263E-02   -0.11677E+01  1536   0.154E+01    0.193E+00
RMM:   2    -0.746852523941E+02   -0.40671E-01   -0.54974E-01  1927   0.316E+00    0.541E-01
RMM:   3    -0.746819981501E+02    0.32542E-02   -0.53671E-02  2458   0.941E-01    0.511E-01
RMM:   4    -0.746809930061E+02    0.10051E-02   -0.16482E-02  2350   0.386E-01    0.209E-01
RMM:   5    -0.746814777599E+02   -0.48475E-03   -0.64293E-03  2451   0.235E-01    0.851E-02
RMM:   6    -0.746816689539E+02   -0.19119E-03   -0.28760E-03  2313   0.157E-01    0.341E-02
RMM:   7    -0.746817410994E+02   -0.72146E-04   -0.12174E-03  2299   0.104E-01    0.169E-02
RMM:   8    -0.746817834884E+02   -0.42389E-04   -0.49221E-04  2045   0.710E-02    0.425E-03
RMM:   9    -0.746817837610E+02   -0.27260E-06   -0.37313E-05  1230   0.513E-02
  36 F= -.74681784E+02 E0= -.74681784E+02  d E =-.448227E-01
       N       E                     dE             d eps       ncg     rms          rms(c)
DAV:   1    -0.746370775637E+02    0.44706E-01   -0.17631E+01  1536   0.189E+01    0.241E+00
RMM:   2    -0.746985529117E+02   -0.61475E-01   -0.83477E-01  1928   0.389E+00    0.665E-01
RMM:   3    -0.746939988715E+02    0.45540E-02   -0.83619E-02  2464   0.116E+00    0.636E-01
RMM:   4    -0.746924932357E+02    0.15056E-02   -0.25275E-02  2357   0.480E-01    0.262E-01
RMM:   5    -0.746931899132E+02   -0.69668E-03   -0.96349E-03  2476   0.293E-01    0.106E-01
RMM:   6    -0.746934863479E+02   -0.29643E-03   -0.45115E-03  2374   0.198E-01    0.407E-02
RMM:   7    -0.746936059690E+02   -0.11962E-03   -0.19220E-03  2313   0.132E-01    0.194E-02
RMM:   8    -0.746936817925E+02   -0.75824E-04   -0.86192E-04  2207   0.917E-02    0.489E-03
RMM:   9    -0.746937048644E+02   -0.23072E-04   -0.27425E-04  1684   0.653E-02    0.264E-03
RMM:  10    -0.746937114456E+02   -0.65812E-05   -0.99821E-05  1383   0.548E-02
  37 F= -.74693711E+02 E0= -.74693711E+02  d E =-.567504E-01
       N       E                     dE             d eps       ncg     rms          rms(c)
DAV:   1    -0.747034556219E+02   -0.97508E-02   -0.38960E+00  1584   0.899E+00    0.123E+00
RMM:   2    -0.747170470774E+02   -0.13591E-01   -0.18369E-01  1929   0.181E+00    0.320E-01
RMM:   3    -0.747157938336E+02    0.12532E-02   -0.18948E-02  2418   0.550E-01    0.308E-01
RMM:   4    -0.747154328950E+02    0.36094E-03   -0.57092E-03  2324   0.234E-01    0.135E-01
RMM:   5    -0.747155635326E+02   -0.13064E-03   -0.23097E-03  2382   0.150E-01    0.458E-02
RMM:   6    -0.747156312042E+02   -0.67672E-04   -0.10236E-03  2319   0.975E-02    0.136E-02
RMM:   7    -0.747156615602E+02   -0.30356E-04   -0.37170E-04  1806   0.661E-02    0.631E-03
RMM:   8    -0.747156669966E+02   -0.54365E-05   -0.91263E-05  1447   0.532E-02
  38 F= -.74715667E+02 E0= -.74715667E+02  d E =-.219556E-01
       N       E                     dE             d eps       ncg     rms          rms(c)
DAV:   1    -0.746941591204E+02    0.21502E-01   -0.11908E+01  1536   0.157E+01    0.216E+00
RMM:   2    -0.747354827438E+02   -0.41324E-01   -0.56194E-01  1933   0.316E+00    0.564E-01
RMM:   3    -0.747317695469E+02    0.37132E-02   -0.57210E-02  2448   0.952E-01    0.554E-01
RMM:   4    -0.747306044173E+02    0.11651E-02   -0.16494E-02  2362   0.392E-01    0.253E-01
RMM:   5    -0.747309328939E+02   -0.32848E-03   -0.65716E-03  2414   0.248E-01    0.827E-02
RMM:   6    -0.747311192211E+02   -0.18633E-03   -0.28955E-03  2378   0.163E-01    0.228E-02
RMM:   7    -0.747312312806E+02   -0.11206E-03   -0.12929E-03  2235   0.109E-01    0.120E-02
RMM:   8    -0.747312837864E+02   -0.52506E-04   -0.57400E-04  2066   0.780E-02    0.563E-03
RMM:   9    -0.747312939323E+02   -0.10146E-04   -0.14936E-04  1488   0.582E-02
  39 F= -.74731294E+02 E0= -.74731294E+02  d E =-.375825E-01
       N       E                     dE             d eps       ncg     rms          rms(c)
DAV:   1    -0.747458751216E+02   -0.14591E-01   -0.63786E-01  1824   0.368E+00    0.552E-01
RMM:   2    -0.747466139469E+02   -0.73883E-03   -0.27236E-02  1972   0.715E-01    0.164E-01
RMM:   3    -0.747460966087E+02    0.51734E-03   -0.33814E-03  2370   0.234E-01    0.113E-01
RMM:   4    -0.747459811338E+02    0.11547E-03   -0.12648E-03  2124   0.113E-01    0.455E-02
RMM:   5    -0.747460070580E+02   -0.25924E-04   -0.44924E-04  2253   0.695E-02    0.221E-02
RMM:   6    -0.747460038241E+02    0.32339E-05   -0.18152E-06  1031   0.462E-02
  40 F= -.74746004E+02 E0= -.74746004E+02  d E =-.147099E-01
       N       E                     dE             d eps       ncg     rms          rms(c)
DAV:   1    -0.747742114548E+02   -0.28204E-01   -0.57623E+00  1536   0.111E+01    0.169E+00
RMM:   2    -0.747805327254E+02   -0.63213E-02   -0.24570E-01  1976   0.216E+00    0.493E-01
RMM:   3    -0.747759706161E+02    0.45621E-02   -0.29592E-02  2391   0.687E-01    0.346E-01
RMM:   4    -0.747748101613E+02    0.11605E-02   -0.10449E-02  2247   0.328E-01    0.142E-01
RMM:   5    -0.747750219806E+02   -0.21182E-03   -0.37437E-03  2396   0.196E-01    0.707E-02
RMM:   6    -0.747751526723E+02   -0.13069E-03   -0.16058E-03  2343   0.125E-01    0.174E-02
RMM:   7    -0.747752134414E+02   -0.60769E-04   -0.73316E-04  2282   0.856E-02    0.102E-02
RMM:   8    -0.747752281023E+02   -0.14661E-04   -0.19344E-04  1585   0.606E-02
  41 F= -.74775228E+02 E0= -.74775228E+02  d E =-.439342E-01
       N       E                     dE             d eps       ncg     rms          rms(c)
DAV:   1    -0.747634901478E+02    0.11723E-01   -0.23118E+01  1536   0.222E+01    0.351E+00
RMM:   2    -0.747883830546E+02   -0.24893E-01   -0.10036E+00  1974   0.434E+00    0.995E-01
RMM:   3    -0.747698712045E+02    0.18512E-01   -0.12100E-01  2385   0.136E+00    0.722E-01
RMM:   4    -0.747651248737E+02    0.47463E-02   -0.40511E-02  2228   0.657E-01    0.304E-01
RMM:   5    -0.747658856211E+02   -0.76075E-03   -0.14239E-02  2462   0.386E-01    0.142E-01
RMM:   6    -0.747663662421E+02   -0.48062E-03   -0.60213E-03  2448   0.244E-01    0.331E-02
RMM:   7    -0.747665899087E+02   -0.22367E-03   -0.26671E-03  2375   0.160E-01    0.198E-02
RMM:   8    -0.747666957772E+02   -0.10587E-03   -0.11950E-03  2309   0.111E-01    0.860E-03
RMM:   9    -0.747667426839E+02   -0.46907E-04   -0.52065E-04  2152   0.778E-02    0.397E-03
RMM:  10    -0.747667486430E+02   -0.59590E-05   -0.81236E-05  1327   0.573E-02
  42 F= -.74766749E+02 E0= -.74766749E+02  d E =-.354547E-01
       N       E                     dE             d eps       ncg     rms          rms(c)
DAV:   1    -0.747803909474E+02   -0.13648E-01   -0.82010E+00  1536   0.132E+01    0.197E+00
RMM:   2    -0.747909497745E+02   -0.10559E-01   -0.36416E-01  1966   0.259E+00    0.619E-01
RMM:   3    -0.747840085219E+02    0.69413E-02   -0.46369E-02  2359   0.837E-01    0.429E-01
RMM:   4    -0.747820052630E+02    0.20033E-02   -0.14113E-02  2137   0.406E-01    0.149E-01
RMM:   5    -0.747822843286E+02   -0.27907E-03   -0.49577E-03  2520   0.231E-01    0.805E-02
RMM:   6    -0.747824314700E+02   -0.14714E-03   -0.20516E-03  2363   0.140E-01    0.239E-02
RMM:   7    -0.747824988654E+02   -0.67395E-04   -0.95773E-04  2278   0.940E-02    0.186E-02
RMM:   8    -0.747825260889E+02   -0.27224E-04   -0.36167E-04  1944   0.648E-02    0.495E-03
RMM:   9    -0.747825295540E+02   -0.34651E-05   -0.63094E-05  1301   0.492E-02
  43 F= -.74782530E+02 E0= -.74782530E+02  d E =-.512356E-01
       N       E                     dE             d eps       ncg     rms          rms(c)
DAV:   1    -0.747931008545E+02   -0.10575E-01   -0.63942E-01  1568   0.370E+00    0.433E-01
RMM:   2    -0.747943029609E+02   -0.12021E-02   -0.26094E-02  1931   0.693E-01    0.140E-01
RMM:   3    -0.747938979617E+02    0.40500E-03   -0.27695E-03  2358   0.216E-01    0.100E-01
RMM:   4    -0.747938103258E+02    0.87636E-04   -0.83806E-04  2124   0.956E-02    0.408E-02
RMM:   5    -0.747938274105E+02   -0.17085E-04   -0.29411E-04  2017   0.588E-02    0.199E-02
RMM:   6    -0.747938245493E+02    0.28612E-05   -0.61520E-06  1029   0.409E-02
  44 F= -.74793825E+02 E0= -.74793825E+02  d E =-.112950E-01
       N       E                     dE             d eps       ncg     rms          rms(c)
DAV:   1    -0.748069688861E+02   -0.13141E-01   -0.29268E+00  1536   0.792E+00    0.927E-01
RMM:   2    -0.748124835415E+02   -0.55147E-02   -0.12028E-01  1946   0.150E+00    0.299E-01
RMM:   3    -0.748111716472E+02    0.13119E-02   -0.15820E-02  2442   0.496E-01    0.215E-01
RMM:   4    -0.748108824188E+02    0.28923E-03   -0.51652E-03  2365   0.228E-01    0.908E-02
RMM:   5    -0.748110127872E+02   -0.13037E-03   -0.19722E-03  2358   0.139E-01    0.458E-02
RMM:   6    -0.748110894936E+02   -0.76706E-04   -0.88699E-04  2263   0.912E-02    0.123E-02
RMM:   7    -0.748111149285E+02   -0.25435E-04   -0.32474E-04  1816   0.635E-02    0.616E-03
RMM:   8    -0.748111205327E+02   -0.56042E-05   -0.88267E-05  1400   0.495E-02
  45 F= -.74811121E+02 E0= -.74811121E+02  d E =-.285910E-01
       N       E                     dE             d eps       ncg     rms          rms(c)
DAV:   1    -0.748024945162E+02    0.86204E-02   -0.11723E+01  1536   0.159E+01    0.188E+00
RMM:   2    -0.748241392741E+02   -0.21645E-01   -0.48429E-01  1942   0.300E+00    0.599E-01
RMM:   3    -0.748188834382E+02    0.52558E-02   -0.63120E-02  2449   0.980E-01    0.439E-01
RMM:   4    -0.748176621689E+02    0.12213E-02   -0.19817E-02  2377   0.450E-01    0.190E-01
RMM:   5    -0.748180980795E+02   -0.43591E-03   -0.72179E-03  2463   0.270E-01    0.920E-02
RMM:   6    -0.748183811293E+02   -0.28305E-03   -0.33305E-03  2392   0.178E-01    0.227E-02
RMM:   7    -0.748185090109E+02   -0.12788E-03   -0.15027E-03  2343   0.121E-01    0.146E-02
RMM:   8    -0.748185731818E+02   -0.64171E-04   -0.70057E-04  2091   0.850E-02    0.562E-03
RMM:   9    -0.748185908713E+02   -0.17690E-04   -0.21252E-04  1625   0.631E-02    0.269E-03
RMM:  10    -0.748185974127E+02   -0.65414E-05   -0.10001E-04  1422   0.550E-02
  46 F= -.74818597E+02 E0= -.74818597E+02  d E =-.360679E-01
       N       E                     dE             d eps       ncg     rms          rms(c)
DAV:   1    -0.748189989092E+02   -0.40804E-03   -0.93107E-01  1600   0.448E+00    0.518E-01
RMM:   2    -0.748207614729E+02   -0.17626E-02   -0.38108E-02  1931   0.836E-01    0.172E-01
RMM:   3    -0.748201931255E+02    0.56835E-03   -0.43262E-03  2406   0.264E-01    0.122E-01
RMM:   4    -0.748200575464E+02    0.13558E-03   -0.12826E-03  2168   0.118E-01    0.457E-02
RMM:   5    -0.748200837750E+02   -0.26229E-04   -0.46304E-04  2175   0.702E-02    0.237E-02
RMM:   6    -0.748200848793E+02   -0.11043E-05   -0.57039E-05  1217   0.463E-02
  47 F= -.74820085E+02 E0= -.74820085E+02  d E =-.375553E-01
       N       E                     dE             d eps       ncg     rms          rms(c)
DAV:   1    -0.748313426265E+02   -0.11259E-01   -0.20408E+00  1536   0.673E+00    0.630E-01
RMM:   2    -0.748354963662E+02   -0.41537E-02   -0.61940E-02  1963   0.109E+00    0.185E-01
RMM:   3    -0.748350975821E+02    0.39878E-03   -0.73804E-03  2449   0.347E-01    0.145E-01
RMM:   4    -0.748349392466E+02    0.15834E-03   -0.23340E-03  2231   0.152E-01    0.509E-02
RMM:   5    -0.748349960904E+02   -0.56844E-04   -0.83778E-04  2307   0.922E-02    0.255E-02
RMM:   6    -0.748350251061E+02   -0.29016E-04   -0.39864E-04  2139   0.632E-02    0.821E-03
RMM:   7    -0.748350221724E+02    0.29337E-05   -0.30311E-05  1144   0.451E-02
  48 F= -.74835022E+02 E0= -.74835022E+02  d E =-.149373E-01
       N       E                     dE             d eps       ncg     rms          rms(c)
DAV:   1    -0.748307616350E+02    0.42635E-02   -0.18287E+01  1536   0.201E+01    0.199E+00
RMM:   2    -0.748703213241E+02   -0.39560E-01   -0.59054E-01  1955   0.331E+00    0.556E-01
RMM:   3    -0.748691218324E+02    0.11995E-02   -0.87861E-02  2447   0.111E+00    0.448E-01
RMM:   4    -0.748682217664E+02    0.90007E-03   -0.26363E-02  2357   0.524E-01    0.172E-01
RMM:   5    -0.748688317639E+02   -0.61000E-03   -0.91013E-03  2500   0.308E-01    0.824E-02
RMM:   6    -0.748691538200E+02   -0.32206E-03   -0.41427E-03  2414   0.200E-01    0.235E-02
RMM:   7    -0.748693025799E+02   -0.14876E-03   -0.18157E-03  2383   0.132E-01    0.137E-02
RMM:   8    -0.748693781525E+02   -0.75573E-04   -0.82249E-04  2155   0.905E-02    0.645E-03
RMM:   9    -0.748693997145E+02   -0.21562E-04   -0.25787E-04  1674   0.649E-02    0.237E-03
RMM:  10    -0.748694077637E+02   -0.80492E-05   -0.11440E-04  1445   0.551E-02
  49 F= -.74869408E+02 E0= -.74869408E+02  d E =-.493229E-01
       N       E                     dE             d eps       ncg     rms          rms(c)
DAV:   1    -0.746944409002E+02    0.17496E+00   -0.72159E+01  1536   0.402E+01    0.446E+00
RMM:   2    -0.748756774646E+02   -0.18124E+00   -0.26952E+00  1938   0.680E+00    0.116E+00
RMM:   3    -0.748906921125E+02   -0.15015E-01   -0.53632E-01  2445   0.236E+00    0.100E+00
RMM:   4    -0.748890441682E+02    0.16479E-02   -0.12915E-01  2362   0.113E+00    0.438E-01
RMM:   5    -0.748912053434E+02   -0.21612E-02   -0.37872E-02  2494   0.639E-01    0.179E-01
RMM:   6    -0.748923903685E+02   -0.11850E-02   -0.15506E-02  2521   0.395E-01    0.419E-02
RMM:   7    -0.748929471859E+02   -0.55682E-03   -0.62742E-03  2443   0.244E-01    0.258E-02
RMM:   8    -0.748932001606E+02   -0.25297E-03   -0.27017E-03  2423   0.160E-01    0.131E-02
RMM:   9    -0.748933013738E+02   -0.10121E-03   -0.11036E-03  2277   0.105E-01    0.507E-03
RMM:  10    -0.748933349269E+02   -0.33553E-04   -0.36392E-04  1735   0.723E-02    0.313E-03
RMM:  11    -0.748933418885E+02   -0.69616E-05   -0.96450E-05  1325   0.592E-02
  50 F= -.74893342E+02 E0= -.74893342E+02  d E =-.732570E-01
       N       E                     dE             d eps       ncg     rms          rms(c)
DAV:   1    -0.748994033406E+02   -0.60684E-02   -0.58065E-01  2000   0.361E+00    0.225E-01
RMM:   2    -0.749005428648E+02   -0.11395E-02   -0.14914E-02  2030   0.543E-01    0.773E-02
RMM:   3    -0.749006481767E+02   -0.10531E-03   -0.24655E-03  2468   0.196E-01    0.634E-02
RMM:   4    -0.749006669871E+02   -0.18810E-04   -0.86779E-04  2342   0.942E-02    0.247E-02
RMM:   5    -0.749006787977E+02   -0.11811E-04   -0.18051E-04  1453   0.613E-02
  51 F= -.74900679E+02 E0= -.74900679E+02  d E =-.733691E-02
       N       E                     dE             d eps       ncg     rms          rms(c)
DAV:   1    -0.749103265321E+02   -0.96595E-02   -0.52149E+00  1536   0.108E+01    0.693E-01
RMM:   2    -0.749209969108E+02   -0.10670E-01   -0.14017E-01  2013   0.165E+00    0.235E-01
RMM:   3    -0.749219439475E+02   -0.94704E-03   -0.22857E-02  2461   0.577E-01    0.195E-01
RMM:   4    -0.749219836688E+02   -0.39721E-04   -0.72565E-03  2430   0.274E-01    0.834E-02
RMM:   5    -0.749221981923E+02   -0.21452E-03   -0.27647E-03  2424   0.165E-01    0.378E-02
RMM:   6    -0.749222870029E+02   -0.88811E-04   -0.11272E-03  2406   0.106E-01    0.121E-02
RMM:   7    -0.749223169789E+02   -0.29976E-04   -0.34944E-04  1804   0.698E-02    0.619E-03
RMM:   8    -0.749223241218E+02   -0.71429E-05   -0.10787E-04  1473   0.553E-02
  52 F= -.74922324E+02 E0= -.74922324E+02  d E =-.289822E-01
       N       E                     dE             d eps       ncg     rms          rms(c)
DAV:   1    -0.749122456924E+02    0.10071E-01   -0.20766E+01  1536   0.217E+01    0.144E+00
RMM:   2    -0.749572329899E+02   -0.44987E-01   -0.59662E-01  2001   0.334E+00    0.480E-01
RMM:   3    -0.749625289926E+02   -0.52960E-02   -0.10916E-01  2472   0.118E+00    0.410E-01
RMM:   4    -0.749627581547E+02   -0.22916E-03   -0.29576E-02  2419   0.554E-01    0.185E-01
RMM:   5    -0.749635215263E+02   -0.76337E-03   -0.10638E-02  2552   0.328E-01    0.753E-02
RMM:   6    -0.749638520402E+02   -0.33051E-03   -0.41713E-03  2455   0.202E-01    0.230E-02
RMM:   7    -0.749640051904E+02   -0.15315E-03   -0.16827E-03  2373   0.128E-01    0.125E-02
RMM:   8    -0.749640629244E+02   -0.57734E-04   -0.62116E-04  2137   0.842E-02    0.629E-03
RMM:   9    -0.749640708575E+02   -0.79331E-05   -0.11375E-04  1377   0.596E-02
  53 F= -.74964071E+02 E0= -.74964071E+02  d E =-.707290E-01
       N       E                     dE             d eps       ncg     rms          rms(c)
DAV:   1    -0.747619417098E+02    0.20212E+00   -0.81059E+01  1536   0.430E+01    0.325E+00
RMM:   2    -0.749834109215E+02   -0.22147E+00   -0.29237E+00  1977   0.689E+00    0.101E+00
RMM:   3    -0.750291746207E+02   -0.45764E-01   -0.71904E-01  2504   0.255E+00    0.930E-01
RMM:   4    -0.750336766734E+02   -0.45021E-02   -0.15677E-01  2461   0.120E+00    0.469E-01
RMM:   5    -0.750361161103E+02   -0.24394E-02   -0.43920E-02  2480   0.671E-01    0.164E-01
RMM:   6    -0.750374451044E+02   -0.13290E-02   -0.16246E-02  2571   0.407E-01    0.393E-02
RMM:   7    -0.750379754471E+02   -0.53034E-03   -0.55648E-03  2477   0.234E-01    0.257E-02
RMM:   8    -0.750381555059E+02   -0.18006E-03   -0.19044E-03  2526   0.142E-01    0.122E-02
RMM:   9    -0.750382195579E+02   -0.64052E-04   -0.71265E-04  2189   0.893E-02    0.523E-03
RMM:  10    -0.750382331323E+02   -0.13574E-04   -0.15207E-04  1395   0.625E-02
  54 F= -.75038233E+02 E0= -.75038233E+02  d E =-.144891E+00
       N       E                     dE             d eps       ncg     rms          rms(c)
DAV:   1    -0.734705145801E+02    0.15677E+01   -0.29943E+02  1536   0.846E+01    0.870E+00
RMM:   2    -0.746169167760E+02   -0.11464E+01   -0.15100E+01  1942   0.152E+01    0.245E+00
RMM:   3    -0.749822731854E+02   -0.36536E+00   -0.47923E+00  2484   0.585E+00    0.254E+00
RMM:   4    -0.750798942713E+02   -0.97621E-01   -0.13954E+00  2457   0.304E+00    0.131E+00
RMM:   5    -0.750920008553E+02   -0.12107E-01   -0.22656E-01  2465   0.155E+00    0.524E-01
RMM:   6    -0.750993560320E+02   -0.73552E-02   -0.91257E-02  2552   0.929E-01    0.974E-02
RMM:   7    -0.751012599209E+02   -0.19039E-02   -0.20176E-02  2559   0.482E-01    0.618E-02
RMM:   8    -0.751018467275E+02   -0.58681E-03   -0.64223E-03  2621   0.276E-01    0.248E-02
RMM:   9    -0.751020533925E+02   -0.20666E-03   -0.21960E-03  2522   0.160E-01    0.129E-02
RMM:  10    -0.751021293099E+02   -0.75917E-04   -0.78771E-04  2125   0.998E-02    0.768E-03
RMM:  11    -0.751021544454E+02   -0.25136E-04   -0.27380E-04  1497   0.702E-02    0.432E-03
RMM:  12    -0.751021654824E+02   -0.11037E-04   -0.13810E-04  1283   0.612E-02
  55 F= -.75102165E+02 E0= -.75102165E+02  d E =-.208824E+00
       N       E                     dE             d eps       ncg     rms          rms(c)
DAV:   1    -0.750601627475E+02    0.41992E-01   -0.38448E+01  1536   0.306E+01    0.177E+00
RMM:   2    -0.751536471505E+02   -0.93484E-01   -0.11991E+00  2039   0.468E+00    0.563E-01
RMM:   3    -0.751713642450E+02   -0.17717E-01   -0.24953E-01  2496   0.170E+00    0.406E-01
RMM:   4    -0.751735180645E+02   -0.21538E-02   -0.57895E-02  2498   0.757E-01    0.206E-01
RMM:   5    -0.751748457685E+02   -0.13277E-02   -0.17886E-02  2537   0.424E-01    0.101E-01
RMM:   6    -0.751753612432E+02   -0.51547E-03   -0.61691E-03  2558   0.254E-01    0.306E-02
RMM:   7    -0.751755599846E+02   -0.19874E-03   -0.21342E-03  2472   0.148E-01    0.138E-02
RMM:   8    -0.751756273028E+02   -0.67318E-04   -0.72239E-04  2340   0.925E-02    0.591E-03
RMM:   9    -0.751756370110E+02   -0.97082E-05   -0.11985E-04  1331   0.619E-02
  56 F= -.75175637E+02 E0= -.75175637E+02  d E =-.734715E-01
       N       E                     dE             d eps       ncg     rms          rms(c)
DAV:   1    -0.750932372063E+02    0.82390E-01   -0.34681E+01  1536   0.292E+01    0.167E+00
RMM:   2    -0.751779423517E+02   -0.84705E-01   -0.10822E+00  2041   0.450E+00    0.534E-01
RMM:   3    -0.751929564610E+02   -0.15014E-01   -0.21420E-01  2495   0.154E+00    0.382E-01
RMM:   4    -0.751944969005E+02   -0.15404E-02   -0.51020E-02  2511   0.713E-01    0.187E-01
RMM:   5    -0.751957508302E+02   -0.12539E-02   -0.16311E-02  2523   0.400E-01    0.960E-02
RMM:   6    -0.751962126661E+02   -0.46184E-03   -0.55879E-03  2561   0.241E-01    0.293E-02
RMM:   7    -0.751963965208E+02   -0.18385E-03   -0.19937E-03  2478   0.143E-01    0.131E-02
RMM:   8    -0.751964598734E+02   -0.63353E-04   -0.68190E-04  2318   0.897E-02    0.584E-03
RMM:   9    -0.751964675285E+02   -0.76552E-05   -0.99916E-05  1319   0.604E-02
  57 F= -.75196468E+02 E0= -.75196468E+02  d E =-.943020E-01
       N       E                     dE             d eps       ncg     rms          rms(c)
DAV:   1    -0.752604892109E+02   -0.64029E-01   -0.30098E+00  1792   0.811E+00    0.960E-01
RMM:   2    -0.752704837471E+02   -0.99945E-02   -0.13423E-01  1969   0.158E+00    0.289E-01
RMM:   3    -0.752694336219E+02    0.10501E-02   -0.15056E-02  2408   0.494E-01    0.239E-01
RMM:   4    -0.752691513986E+02    0.28222E-03   -0.63215E-03  2240   0.248E-01    0.514E-02
RMM:   5    -0.752693215724E+02   -0.17017E-03   -0.22332E-03  2414   0.141E-01    0.339E-02
RMM:   6    -0.752693664313E+02   -0.44859E-04   -0.91420E-04  2310   0.909E-02    0.112E-02
RMM:   7    -0.752693802369E+02   -0.13806E-04   -0.19016E-04  1493   0.589E-02
  58 F= -.75269380E+02 E0= -.75269380E+02  d E =-.729127E-01
       N       E                     dE             d eps       ncg     rms          rms(c)
DAV:   1    -0.753144615435E+02   -0.45095E-01   -0.27000E+01  1536   0.243E+01    0.331E+00
RMM:   2    -0.754050064617E+02   -0.90545E-01   -0.12318E+00  1954   0.477E+00    0.870E-01
RMM:   3    -0.753969713756E+02    0.80351E-02   -0.14601E-01  2447   0.150E+00    0.762E-01
RMM:   4    -0.753943592600E+02    0.26121E-02   -0.54482E-02  2254   0.746E-01    0.168E-01
RMM:   5    -0.753958769586E+02   -0.15177E-02   -0.19021E-02  2606   0.415E-01    0.104E-01
RMM:   6    -0.753962309801E+02   -0.35402E-03   -0.76124E-03  2453   0.260E-01    0.378E-02
RMM:   7    -0.753964712170E+02   -0.24024E-03   -0.29200E-03  2404   0.161E-01    0.185E-02
RMM:   8    -0.753965808586E+02   -0.10964E-03   -0.11782E-03  2280   0.103E-01    0.853E-03
RMM:   9    -0.753966078873E+02   -0.27029E-04   -0.30042E-04  1812   0.670E-02    0.376E-03
RMM:  10    -0.753966135366E+02   -0.56494E-05   -0.83879E-05  1354   0.538E-02
  59 F= -.75396614E+02 E0= -.75396614E+02  d E =-.200146E+00
       N       E                     dE             d eps       ncg     rms          rms(c)
DAV:   1    -0.753952240140E+02    0.13839E-02   -0.48969E+00  1584   0.103E+01    0.125E+00
RMM:   2    -0.754109472991E+02   -0.15723E-01   -0.21544E-01  1956   0.202E+00    0.377E-01
RMM:   3    -0.754095279723E+02    0.14193E-02   -0.24613E-02  2409   0.629E-01    0.314E-01
RMM:   4    -0.754090644704E+02    0.46350E-03   -0.10293E-02  2244   0.318E-01    0.669E-02
RMM:   5    -0.754093588275E+02   -0.29436E-03   -0.37342E-03  2498   0.181E-01    0.433E-02
RMM:   6    -0.754094317770E+02   -0.72950E-04   -0.14815E-03  2322   0.115E-01    0.146E-02
RMM:   7    -0.754094789796E+02   -0.47203E-04   -0.55061E-04  2129   0.741E-02    0.789E-03
RMM:   8    -0.754094793343E+02   -0.35472E-06   -0.29854E-05  1209   0.517E-02
  60 F= -.75409479E+02 E0= -.75409479E+02  d E =-.213012E+00
       N       E                     dE             d eps       ncg     rms          rms(c)
DAV:   1    -0.754514051655E+02   -0.41926E-01   -0.68695E+00  1536   0.122E+01    0.162E+00
RMM:   2    -0.754749780015E+02   -0.23573E-01   -0.30229E-01  1949   0.240E+00    0.473E-01
RMM:   3    -0.754729421898E+02    0.20358E-02   -0.34753E-02  2474   0.747E-01    0.421E-01
RMM:   4    -0.754722008319E+02    0.74136E-03   -0.13405E-02  2288   0.361E-01    0.112E-01
RMM:   5    -0.754726011852E+02   -0.40035E-03   -0.49915E-03  2470   0.208E-01    0.474E-02
RMM:   6    -0.754727318569E+02   -0.13067E-03   -0.17514E-03  2372   0.126E-01    0.157E-02
RMM:   7    -0.754727911995E+02   -0.59343E-04   -0.69533E-04  2221   0.805E-02    0.104E-02
RMM:   8    -0.754727929284E+02   -0.17290E-05   -0.59415E-05  1282   0.541E-02
  61 F= -.75472793E+02 E0= -.75472793E+02  d E =-.633136E-01
       N       E                     dE             d eps       ncg     rms          rms(c)
DAV:   1    -0.754757963197E+02   -0.30051E-02   -0.78043E+00  1536   0.129E+01    0.170E+00
RMM:   2    -0.755018522339E+02   -0.26056E-01   -0.33604E-01  1952   0.255E+00    0.497E-01
RMM:   3    -0.755001740791E+02    0.16782E-02   -0.39293E-02  2475   0.792E-01    0.436E-01
RMM:   4    -0.754993413398E+02    0.83274E-03   -0.15453E-02  2284   0.390E-01    0.108E-01
RMM:   5    -0.754998119586E+02   -0.47062E-03   -0.57634E-03  2490   0.224E-01    0.500E-02
RMM:   6    -0.754999619663E+02   -0.15001E-03   -0.20200E-03  2377   0.136E-01    0.164E-02
RMM:   7    -0.755000310768E+02   -0.69111E-04   -0.80493E-04  2246   0.864E-02    0.110E-02
RMM:   8    -0.755000380895E+02   -0.70126E-05   -0.11393E-04  1417   0.578E-02
  62 F= -.75500038E+02 E0= -.75500038E+02  d E =-.905588E-01
       N       E                     dE             d eps       ncg     rms          rms(c)
DAV:   1    -0.755318000823E+02   -0.31769E-01   -0.41489E+00  1536   0.969E+00    0.835E-01
RMM:   2    -0.755368910316E+02   -0.50909E-02   -0.13690E-01  1989   0.164E+00    0.337E-01
RMM:   3    -0.755359159513E+02    0.97508E-03   -0.20777E-02  2392   0.562E-01    0.207E-01
RMM:   4    -0.755358483637E+02    0.67588E-04   -0.66150E-03  2417   0.268E-01    0.896E-02
RMM:   5    -0.755360923037E+02   -0.24394E-03   -0.29354E-03  2465   0.164E-01    0.453E-02
RMM:   6    -0.755361817549E+02   -0.89451E-04   -0.96084E-04  2343   0.942E-02    0.132E-02
RMM:   7    -0.755361902075E+02   -0.84526E-05   -0.10241E-04  1336   0.587E-02
  63 F= -.75536190E+02 E0= -.75536190E+02  d E =-.361521E-01
       N       E                     dE             d eps       ncg     rms          rms(c)
DAV:   1    -0.755388646672E+02   -0.26829E-02   -0.28557E+01  1536   0.256E+01    0.228E+00
RMM:   2    -0.755754952549E+02   -0.36631E-01   -0.98405E-01  1993   0.435E+00    0.879E-01
RMM:   3    -0.755707479946E+02    0.47473E-02   -0.16040E-01  2414   0.149E+00    0.558E-01
RMM:   4    -0.755704762192E+02    0.27178E-03   -0.45799E-02  2468   0.711E-01    0.255E-01
RMM:   5    -0.755718842242E+02   -0.14080E-02   -0.18317E-02  2477   0.413E-01    0.119E-01
RMM:   6    -0.755724686504E+02   -0.58443E-03   -0.63803E-03  2524   0.247E-01    0.322E-02
RMM:   7    -0.755726856334E+02   -0.21698E-03   -0.22714E-03  2443   0.145E-01    0.169E-02
RMM:   8    -0.755727639028E+02   -0.78269E-04   -0.81552E-04  2324   0.905E-02    0.772E-03
RMM:   9    -0.755727719742E+02   -0.80714E-05   -0.96816E-05  1366   0.586E-02
  64 F= -.75572772E+02 E0= -.75572772E+02  d E =-.727339E-01
       N       E                     dE             d eps       ncg     rms          rms(c)
DAV:   1    -0.755809501666E+02   -0.81863E-02   -0.10216E+01  1536   0.158E+01    0.168E+00
RMM:   2    -0.755968893724E+02   -0.15939E-01   -0.30274E-01  2029   0.255E+00    0.437E-01
RMM:   3    -0.755957759201E+02    0.11135E-02   -0.44422E-02  2400   0.831E-01    0.280E-01
RMM:   4    -0.755957326864E+02    0.43234E-04   -0.14676E-02  2446   0.399E-01    0.122E-01
RMM:   5    -0.755962401947E+02   -0.50751E-03   -0.60981E-03  2495   0.237E-01    0.612E-02
RMM:   6    -0.755964498006E+02   -0.20961E-03   -0.22163E-03  2489   0.143E-01    0.215E-02
RMM:   7    -0.755965182802E+02   -0.68480E-04   -0.70537E-04  2240   0.852E-02    0.738E-03
RMM:   8    -0.755965238315E+02   -0.55513E-05   -0.74102E-05  1298   0.567E-02
  65 F= -.75596524E+02 E0= -.75596524E+02  d E =-.237519E-01
       N       E                     dE             d eps       ncg     rms          rms(c)
DAV:   1    -0.755937778774E+02    0.27404E-02   -0.33976E+00  1552   0.911E+00    0.969E-01
RMM:   2    -0.755990031213E+02   -0.52252E-02   -0.98942E-02  2031   0.147E+00    0.250E-01
RMM:   3    -0.755986810756E+02    0.32205E-03   -0.14469E-02  2396   0.482E-01    0.160E-01
RMM:   4    -0.755986731223E+02    0.79532E-05   -0.50769E-03  2393   0.234E-01    0.680E-02
RMM:   5    -0.755988602164E+02   -0.18709E-03   -0.22106E-03  2454   0.145E-01    0.347E-02
RMM:   6    -0.755989336593E+02   -0.73443E-04   -0.77940E-04  2320   0.866E-02    0.123E-02
RMM:   7    -0.755989357679E+02   -0.21086E-05   -0.32897E-05  1149   0.549E-02
  66 F= -.75598936E+02 E0= -.75598936E+02  d E =-.261638E-01
       N       E                     dE             d eps       ncg     rms          rms(c)
DAV:   1    -0.756009880067E+02   -0.20543E-02   -0.91477E+00  1536   0.149E+01    0.821E-01
RMM:   2    -0.756209500168E+02   -0.19962E-01   -0.25887E-01  2047   0.232E+00    0.278E-01
RMM:   3    -0.756233420460E+02   -0.23920E-02   -0.42357E-02  2470   0.779E-01    0.226E-01
RMM:   4    -0.756238050695E+02   -0.46302E-03   -0.13672E-02  2488   0.371E-01    0.102E-01
RMM:   5    -0.756242830055E+02   -0.47794E-03   -0.55130E-03  2506   0.220E-01    0.505E-02
RMM:   6    -0.756244558533E+02   -0.17285E-03   -0.19312E-03  2490   0.132E-01    0.146E-02
RMM:   7    -0.756245107145E+02   -0.54861E-04   -0.57981E-04  2081   0.796E-02    0.663E-03
RMM:   8    -0.756245162198E+02   -0.55053E-05   -0.79301E-05  1309   0.558E-02
  67 F= -.75624516E+02 E0= -.75624516E+02  d E =-.255805E-01
       N       E                     dE             d eps       ncg     rms          rms(c)
DAV:   1    -0.755048667786E+02    0.11964E+00   -0.45799E+01  1536   0.335E+01    0.202E+00
RMM:   2    -0.756166872234E+02   -0.11182E+00   -0.14509E+00  2038   0.528E+00    0.646E-01
RMM:   3    -0.756353425279E+02   -0.18655E-01   -0.28471E-01  2496   0.183E+00    0.570E-01
RMM:   4    -0.756382238200E+02   -0.28813E-02   -0.74602E-02  2514   0.881E-01    0.272E-01
RMM:   5    -0.756402393023E+02   -0.20155E-02   -0.25510E-02  2513   0.499E-01    0.120E-01
RMM:   6    -0.756410701901E+02   -0.83089E-03   -0.94259E-03  2596   0.302E-01    0.315E-02
RMM:   7    -0.756413711052E+02   -0.30092E-03   -0.32005E-03  2511   0.174E-01    0.159E-02
RMM:   8    -0.756414752675E+02   -0.10416E-03   -0.11058E-03  2440   0.106E-01    0.696E-03
RMM:   9    -0.756414982481E+02   -0.22981E-04   -0.25302E-04  1601   0.682E-02    0.255E-03
RMM:  10    -0.756415060050E+02   -0.77569E-05   -0.10884E-04  1439   0.577E-02
  68 F= -.75641506E+02 E0= -.75641506E+02  d E =-.425702E-01
       N       E                     dE             d eps       ncg     rms          rms(c)
DAV:   1    -0.756338614933E+02    0.76368E-02   -0.10443E+01  1536   0.157E+01    0.116E+00
RMM:   2    -0.756570982216E+02   -0.23237E-01   -0.34028E-01  2019   0.257E+00    0.433E-01
RMM:   3    -0.756595380782E+02   -0.24399E-02   -0.56704E-02  2470   0.876E-01    0.272E-01
RMM:   4    -0.756600927132E+02   -0.55463E-03   -0.18489E-02  2437   0.422E-01    0.101E-01
RMM:   5    -0.756607527645E+02   -0.66005E-03   -0.76350E-03  2514   0.250E-01    0.537E-02
RMM:   6    -0.756609837802E+02   -0.23102E-03   -0.26684E-03  2463   0.150E-01    0.252E-02
RMM:   7    -0.756610661788E+02   -0.82399E-04   -0.94580E-04  2323   0.925E-02    0.988E-03
RMM:   8    -0.756610805953E+02   -0.14417E-04   -0.17316E-04  1402   0.605E-02
  69 F= -.75661081E+02 E0= -.75661081E+02  d E =-.195746E-01
       N       E                     dE             d eps       ncg     rms          rms(c)
DAV:   1    -0.756499115160E+02    0.11155E-01   -0.62324E+00  1552   0.122E+01    0.894E-01
RMM:   2    -0.756636434360E+02   -0.13732E-01   -0.20045E-01  2021   0.197E+00    0.338E-01
RMM:   3    -0.756650842558E+02   -0.14408E-02   -0.33318E-02  2469   0.675E-01    0.215E-01
RMM:   4    -0.756654056952E+02   -0.32144E-03   -0.11137E-02  2442   0.324E-01    0.786E-02
RMM:   5    -0.756658085433E+02   -0.40285E-03   -0.46669E-03  2477   0.195E-01    0.417E-02
RMM:   6    -0.756659513278E+02   -0.14278E-03   -0.16475E-03  2410   0.118E-01    0.196E-02
RMM:   7    -0.756659947733E+02   -0.43445E-04   -0.51073E-04  1976   0.741E-02    0.674E-03
RMM:   8    -0.756660009787E+02   -0.62054E-05   -0.95154E-05  1372   0.543E-02
  70 F= -.75666001E+02 E0= -.75666001E+02  d E =-.244950E-01
       N       E                     dE             d eps       ncg     rms          rms(c)
DAV:   1    -0.756727313917E+02   -0.67366E-02   -0.59124E+00  1552   0.114E+01    0.117E+00
RMM:   2    -0.756880692823E+02   -0.15338E-01   -0.26570E-01  1942   0.217E+00    0.496E-01
RMM:   3    -0.756870157619E+02    0.10535E-02   -0.40889E-02  2449   0.746E-01    0.380E-01
RMM:   4    -0.756866522785E+02    0.36348E-03   -0.13781E-02  2325   0.364E-01    0.123E-01
RMM:   5    -0.756870386433E+02   -0.38636E-03   -0.51884E-03  2435   0.209E-01    0.556E-02
RMM:   6    -0.756871805193E+02   -0.14188E-03   -0.20434E-03  2366   0.128E-01    0.237E-02
RMM:   7    -0.756872406474E+02   -0.60128E-04   -0.81889E-04  2215   0.824E-02    0.160E-02
RMM:   8    -0.756872561492E+02   -0.15502E-04   -0.20199E-04  1428   0.546E-02    0.277E-03
RMM:   9    -0.756872626361E+02   -0.64869E-05   -0.10582E-04  1472   0.470E-02
  71 F= -.75687263E+02 E0= -.75687263E+02  d E =-.212617E-01
       N       E                     dE             d eps       ncg     rms          rms(c)
DAV:   1    -0.756855843697E+02    0.16718E-02   -0.28598E+00  1616   0.790E+00    0.806E-01
RMM:   2    -0.756927447850E+02   -0.71604E-02   -0.12634E-01  1943   0.151E+00    0.338E-01
RMM:   3    -0.756923751980E+02    0.36959E-03   -0.19547E-02  2457   0.516E-01    0.255E-01
RMM:   4    -0.756922263270E+02    0.14887E-03   -0.67337E-03  2333   0.253E-01    0.840E-02
RMM:   5    -0.756924251617E+02   -0.19883E-03   -0.26227E-03  2364   0.147E-01    0.387E-02
RMM:   6    -0.756924987022E+02   -0.73541E-04   -0.10266E-03  2228   0.915E-02    0.162E-02
RMM:   7    -0.756925260485E+02   -0.27346E-04   -0.38576E-04  1955   0.603E-02    0.791E-03
RMM:   8    -0.756925265553E+02   -0.50689E-06   -0.37537E-05  1207   0.432E-02
  72 F= -.75692527E+02 E0= -.75692527E+02  d E =-.265256E-01
       N       E                     dE             d eps       ncg     rms          rms(c)
DAV:   1    -0.756923126763E+02    0.21337E-03   -0.89218E-01  1792   0.415E+00    0.657E-01
RMM:   2    -0.756969461557E+02   -0.46335E-02   -0.53362E-02  1918   0.945E-01    0.158E-01
RMM:   3    -0.756968008413E+02    0.14531E-03   -0.60143E-03  2388   0.291E-01    0.151E-01
RMM:   4    -0.756967750257E+02    0.25816E-04   -0.23373E-03  2191   0.140E-01    0.498E-02
RMM:   5    -0.756968500379E+02   -0.75012E-04   -0.90020E-04  2114   0.836E-02    0.216E-02
RMM:   6    -0.756968587822E+02   -0.87443E-05   -0.15001E-04  1312   0.522E-02
  73 F= -.75696859E+02 E0= -.75696859E+02  d E =-.433223E-02
       N       E                     dE             d eps       ncg     rms          rms(c)
DAV:   1    -0.756969138586E+02   -0.63821E-04   -0.10567E-02  1936   0.443E-01    0.743E-02
RMM:   2    -0.756969742811E+02   -0.60423E-04   -0.68409E-04  1879   0.109E-01    0.160E-02
RMM:   3    -0.756969644285E+02    0.98526E-05    0.83062E-06  1036   0.454E-02
  74 F= -.75696964E+02 E0= -.75696964E+02  d E =-.443787E-02
       N       E                     dE             d eps       ncg     rms          rms(c)
DAV:   1    -0.756975929198E+02   -0.61864E-03   -0.66796E-01  1600   0.375E+00    0.361E-01
RMM:   2    -0.757000923393E+02   -0.24994E-02   -0.32361E-02  1942   0.752E-01    0.140E-01
RMM:   3    -0.757000888454E+02    0.34939E-05   -0.47756E-03  2461   0.256E-01    0.123E-01
RMM:   4    -0.757000828218E+02    0.60236E-05   -0.16750E-03  2296   0.120E-01    0.459E-02
RMM:   5    -0.757001374321E+02   -0.54610E-04   -0.65220E-04  2092   0.722E-02    0.193E-02
RMM:   6    -0.757001467293E+02   -0.92972E-05   -0.20840E-04  1698   0.486E-02    0.798E-03
RMM:   7    -0.757001478822E+02   -0.11529E-05   -0.45215E-05  1237   0.369E-02
  75 F= -.75700148E+02 E0= -.75700148E+02  d E =-.318345E-02
       N       E                     dE             d eps       ncg     rms          rms(c)
DAV:   1    -0.756954978011E+02    0.46489E-02   -0.16734E+00  1536   0.593E+00    0.575E-01
RMM:   2    -0.757016692314E+02   -0.61714E-02   -0.80169E-02  1942   0.119E+00    0.220E-01
RMM:   3    -0.757016705304E+02   -0.12990E-05   -0.11595E-02  2468   0.400E-01    0.193E-01
RMM:   4    -0.757016371295E+02    0.33401E-04   -0.39954E-03  2375   0.188E-01    0.723E-02
RMM:   5    -0.757017649358E+02   -0.12781E-03   -0.15444E-03  2317   0.110E-01    0.309E-02
RMM:   6    -0.757018012891E+02   -0.36353E-04   -0.63826E-04  2138   0.719E-02    0.145E-02
RMM:   7    -0.757018026706E+02   -0.13814E-05   -0.77532E-05  1195   0.477E-02
  76 F= -.75701803E+02 E0= -.75701803E+02  d E =-.483824E-02
       N       E                     dE             d eps       ncg     rms          rms(c)
DAV:   1    -0.757009068115E+02    0.89448E-03   -0.74479E-01  1552   0.410E+00    0.379E-01
RMM:   2    -0.757037268719E+02   -0.28201E-02   -0.32773E-02  1968   0.770E-01    0.109E-01
RMM:   3    -0.757038129713E+02   -0.86099E-04   -0.48403E-03  2448   0.262E-01    0.105E-01
RMM:   4    -0.757038456908E+02   -0.32719E-04   -0.16940E-03  2313   0.123E-01    0.393E-02
RMM:   5    -0.757039050524E+02   -0.59362E-04   -0.66355E-04  1981   0.746E-02    0.152E-02
RMM:   6    -0.757039073090E+02   -0.22566E-05   -0.10395E-04  1321   0.491E-02
  77 F= -.75703907E+02 E0= -.75703907E+02  d E =-.210464E-02
       N       E                     dE             d eps       ncg     rms          rms(c)
DAV:   1    -0.757017911757E+02    0.21139E-02   -0.83869E-01  1536   0.434E+00    0.404E-01
RMM:   2    -0.757050125122E+02   -0.32213E-02   -0.36765E-02  1963   0.817E-01    0.117E-01
RMM:   3    -0.757050833441E+02   -0.70832E-04   -0.54158E-03  2461   0.278E-01    0.114E-01
RMM:   4    -0.757051132414E+02   -0.29897E-04   -0.19270E-03  2300   0.130E-01    0.411E-02
RMM:   5    -0.757051829218E+02   -0.69680E-04   -0.77638E-04  2091   0.791E-02    0.166E-02
RMM:   6    -0.757051887540E+02   -0.58322E-05   -0.14518E-04  1405   0.506E-02
  78 F= -.75705189E+02 E0= -.75705189E+02  d E =-.338608E-02
       N       E                     dE             d eps       ncg     rms          rms(c)
DAV:   1    -0.757060760935E+02   -0.89317E-03   -0.78493E-01  1536   0.430E+00    0.370E-01
RMM:   2    -0.757084283456E+02   -0.23523E-02   -0.31838E-02  1950   0.787E-01    0.117E-01
RMM:   3    -0.757084096859E+02    0.18660E-04   -0.49725E-03  2436   0.272E-01    0.107E-01
RMM:   4    -0.757084540365E+02   -0.44351E-04   -0.17824E-03  2356   0.127E-01    0.511E-02
RMM:   5    -0.757085127025E+02   -0.58666E-04   -0.73282E-04  2117   0.785E-02    0.223E-02
RMM:   6    -0.757085152287E+02   -0.25262E-05   -0.61863E-05  1129   0.496E-02
  79 F= -.75708515E+02 E0= -.75708515E+02  d E =-.332647E-02
       N       E                     dE             d eps       ncg     rms          rms(c)
DAV:   1    -0.757080443938E+02    0.46831E-03   -0.79952E-01  1536   0.435E+00    0.374E-01
RMM:   2    -0.757104413595E+02   -0.23970E-02   -0.32465E-02  1952   0.795E-01    0.117E-01
RMM:   3    -0.757104432678E+02   -0.19083E-05   -0.52070E-03  2446   0.277E-01    0.108E-01
RMM:   4    -0.757104954818E+02   -0.52214E-04   -0.18735E-03  2353   0.129E-01    0.513E-02
RMM:   5    -0.757105576443E+02   -0.62163E-04   -0.77177E-04  2134   0.802E-02    0.226E-02
RMM:   6    -0.757105618021E+02   -0.41578E-05   -0.79978E-05  1172   0.508E-02
  80 F= -.75710562E+02 E0= -.75710562E+02  d E =-.537305E-02
       N       E                     dE             d eps       ncg     rms          rms(c)
DAV:   1    -0.757009767890E+02    0.95809E-02   -0.32045E+00  1536   0.872E+00    0.761E-01
RMM:   2    -0.757104809211E+02   -0.95041E-02   -0.12951E-01  1947   0.158E+00    0.236E-01
RMM:   3    -0.757102179255E+02    0.26300E-03   -0.19093E-02  2414   0.536E-01    0.220E-01
RMM:   4    -0.757103535466E+02   -0.13562E-03   -0.67164E-03  2406   0.251E-01    0.105E-01
RMM:   5    -0.757105728305E+02   -0.21928E-03   -0.27824E-03  2447   0.153E-01    0.467E-02
RMM:   6    -0.757106657016E+02   -0.92871E-04   -0.10597E-03  2255   0.906E-02    0.140E-02
RMM:   7    -0.757106821290E+02   -0.16427E-04   -0.20195E-04  1392   0.577E-02    0.615E-03
RMM:   8    -0.757106864055E+02   -0.42765E-05   -0.83138E-05  1321   0.492E-02
  81 F= -.75710686E+02 E0= -.75710686E+02  d E =-.549765E-02
       N       E                     dE             d eps       ncg     rms          rms(c)
DAV:   1    -0.757100185752E+02    0.66355E-03   -0.10100E+00  1536   0.453E+00    0.130E+00
RMM:   2    -0.757149636301E+02   -0.49451E-02   -0.72141E-02  1898   0.110E+00    0.253E-01
RMM:   3    -0.757131615844E+02    0.18020E-02   -0.41470E-03  2274   0.281E-01    0.167E-01
RMM:   4    -0.757128687629E+02    0.29282E-03   -0.22673E-03  1963   0.152E-01    0.387E-02
RMM:   5    -0.757129018573E+02   -0.33094E-04   -0.66767E-04  2217   0.813E-02    0.248E-02
RMM:   6    -0.757129063016E+02   -0.44443E-05   -0.11818E-04  1356   0.513E-02
  82 F= -.75712906E+02 E0= -.75712906E+02  d E =-.221990E-02
       N       E                     dE             d eps       ncg     rms          rms(c)
DAV:   1    -0.757143672558E+02   -0.14654E-02   -0.16082E-01  1792   0.182E+00    0.499E-01
RMM:   2    -0.757153383795E+02   -0.97112E-03   -0.13246E-02  1791   0.439E-01    0.109E-01
RMM:   3    -0.757148686255E+02    0.46975E-03   -0.52511E-04  2088   0.105E-01    0.802E-02
RMM:   4    -0.757148159647E+02    0.52661E-04   -0.33464E-04  1848   0.548E-02    0.175E-02
RMM:   5    -0.757148082764E+02    0.76883E-05    0.25195E-06   927   0.234E-02
  83 F= -.75714808E+02 E0= -.75714808E+02  d E =-.412187E-02
       N       E                     dE             d eps       ncg     rms          rms(c)
DAV:   1    -0.757163712304E+02   -0.15553E-02   -0.29095E-01  1568   0.272E+00    0.220E-01
RMM:   2    -0.757165844093E+02   -0.21318E-03   -0.83516E-03  2039   0.428E-01    0.815E-02
RMM:   3    -0.757165465484E+02    0.37861E-04   -0.14541E-03  2353   0.149E-01    0.466E-02
RMM:   4    -0.757165550232E+02   -0.84747E-05   -0.42518E-04  2280   0.697E-02    0.272E-02
RMM:   5    -0.757165480227E+02    0.70005E-05    0.24237E-05   928   0.448E-02
  84 F= -.75716548E+02 E0= -.75716548E+02  d E =-.173975E-02
       N       E                     dE             d eps       ncg     rms          rms(c)
DAV:   1    -0.757165130645E+02    0.41959E-04   -0.10323E+00  1536   0.511E+00    0.406E-01
RMM:   2    -0.757174319581E+02   -0.91889E-03   -0.31101E-02  2048   0.819E-01    0.152E-01
RMM:   3    -0.757174340795E+02   -0.21213E-05   -0.64087E-03  2424   0.304E-01    0.875E-02
RMM:   4    -0.757175215284E+02   -0.87449E-04   -0.20661E-03  2525   0.148E-01    0.525E-02
RMM:   5    -0.757175873409E+02   -0.65813E-04   -0.84714E-04  2343   0.887E-02    0.217E-02
RMM:   6    -0.757175877959E+02   -0.45498E-06   -0.38411E-05  1114   0.561E-02
  85 F= -.75717588E+02 E0= -.75717588E+02  d E =-.277952E-02
       N       E                     dE             d eps       ncg     rms          rms(c)
DAV:   1    -0.757181416700E+02   -0.55433E-03   -0.27557E-01  1536   0.265E+00    0.221E-01
RMM:   2    -0.757186479390E+02   -0.50627E-03   -0.80991E-03  2057   0.420E-01    0.651E-02
RMM:   3    -0.757187044454E+02   -0.56506E-04   -0.16822E-03  2487   0.161E-01    0.402E-02
RMM:   4    -0.757187317371E+02   -0.27292E-04   -0.63728E-04  2306   0.812E-02    0.189E-02
RMM:   5    -0.757187265321E+02    0.52050E-05    0.18149E-05   970   0.526E-02
  86 F= -.75718727E+02 E0= -.75718727E+02  d E =-.113874E-02
       N       E                     dE             d eps       ncg     rms          rms(c)
DAV:   1    -0.757164220797E+02    0.23097E-02   -0.17759E+00  1536   0.672E+00    0.571E-01
RMM:   2    -0.757195018391E+02   -0.30798E-02   -0.50352E-02  2038   0.105E+00    0.168E-01
RMM:   3    -0.757196795587E+02   -0.17772E-03   -0.92255E-03  2479   0.379E-01    0.103E-01
RMM:   4    -0.757197788861E+02   -0.99327E-04   -0.32935E-03  2501   0.185E-01    0.480E-02
RMM:   5    -0.757198972277E+02   -0.11834E-03   -0.13991E-03  2375   0.112E-01    0.263E-02
RMM:   6    -0.757199283028E+02   -0.31075E-04   -0.35789E-04  1786   0.693E-02    0.751E-03
RMM:   7    -0.757199338882E+02   -0.55854E-05   -0.87220E-05  1337   0.529E-02
  87 F= -.75719934E+02 E0= -.75719934E+02  d E =-.234609E-02
       N       E                     dE             d eps       ncg     rms          rms(c)
DAV:   1    -0.757206182248E+02   -0.68992E-03   -0.22339E-01  1536   0.238E+00    0.118E-01
RMM:   2    -0.757210873529E+02   -0.46913E-03   -0.58947E-03  2051   0.355E-01    0.484E-02
RMM:   3    -0.757211647163E+02   -0.77363E-04   -0.12277E-03  2481   0.137E-01    0.338E-02
RMM:   4    -0.757211852034E+02   -0.20487E-04   -0.45677E-04  2255   0.699E-02    0.112E-02
RMM:   5    -0.757211806582E+02    0.45451E-05    0.25226E-05   934   0.462E-02
  88 F= -.75721181E+02 E0= -.75721181E+02  d E =-.124677E-02
       N       E                     dE             d eps       ncg     rms          rms(c)
DAV:   1    -0.757195159525E+02    0.16693E-02   -0.20132E+00  1536   0.715E+00    0.359E-01
RMM:   2    -0.757235090463E+02   -0.39931E-02   -0.50490E-02  2035   0.104E+00    0.145E-01
RMM:   3    -0.757239946320E+02   -0.48559E-03   -0.88723E-03  2502   0.373E-01    0.103E-01
RMM:   4    -0.757240959209E+02   -0.10129E-03   -0.32074E-03  2454   0.179E-01    0.343E-02
RMM:   5    -0.757242161562E+02   -0.12024E-03   -0.13692E-03  2387   0.110E-01    0.187E-02
RMM:   6    -0.757242485704E+02   -0.32414E-04   -0.40036E-04  1898   0.695E-02    0.605E-03
RMM:   7    -0.757242542523E+02   -0.56819E-05   -0.85767E-05  1361   0.519E-02
  89 F= -.75724254E+02 E0= -.75724254E+02  d E =-.432036E-02
       N       E                     dE             d eps       ncg     rms          rms(c)
DAV:   1    -0.757085679046E+02    0.15681E-01   -0.80312E+00  1536   0.143E+01    0.724E-01
RMM:   2    -0.757244279937E+02   -0.15860E-01   -0.20178E-01  2033   0.208E+00    0.291E-01
RMM:   3    -0.757264427052E+02   -0.20147E-02   -0.35722E-02  2505   0.738E-01    0.208E-01
RMM:   4    -0.757267856713E+02   -0.34297E-03   -0.12183E-02  2478   0.360E-01    0.717E-02
RMM:   5    -0.757272175820E+02   -0.43191E-03   -0.50086E-03  2551   0.214E-01    0.379E-02
RMM:   6    -0.757273715150E+02   -0.15393E-03   -0.18433E-03  2452   0.132E-01    0.122E-02
RMM:   7    -0.757274353586E+02   -0.63844E-04   -0.67853E-04  2196   0.820E-02    0.660E-03
RMM:   8    -0.757274393863E+02   -0.40277E-05   -0.58293E-05  1224   0.554E-02
  90 F= -.75727439E+02 E0= -.75727439E+02  d E =-.750550E-02
       N       E                     dE             d eps       ncg     rms          rms(c)
DAV:   1    -0.757264415910E+02    0.99377E-03   -0.15516E+00  1536   0.623E+00    0.370E-01
RMM:   2    -0.757296297891E+02   -0.31882E-02   -0.37903E-02  2035   0.901E-01    0.117E-01
RMM:   3    -0.757300733850E+02   -0.44360E-03   -0.65490E-03  2472   0.318E-01    0.837E-02
RMM:   4    -0.757301854333E+02   -0.11205E-03   -0.23266E-03  2485   0.155E-01    0.292E-02
RMM:   5    -0.757302763762E+02   -0.90943E-04   -0.99956E-04  2328   0.954E-02    0.153E-02
RMM:   6    -0.757302867695E+02   -0.10393E-04   -0.14517E-04  1334   0.603E-02
  91 F= -.75730287E+02 E0= -.75730287E+02  d E =-.284738E-02
       N       E                     dE             d eps       ncg     rms          rms(c)
DAV:   1    -0.757003081249E+02    0.29968E-01   -0.13323E+01  1536   0.183E+01    0.113E+00
RMM:   2    -0.757279239885E+02   -0.27616E-01   -0.33145E-01  2031   0.264E+00    0.343E-01
RMM:   3    -0.757319172842E+02   -0.39933E-02   -0.57545E-02  2514   0.919E-01    0.248E-01
RMM:   4    -0.757327594378E+02   -0.84215E-03   -0.18299E-02  2511   0.438E-01    0.945E-02
RMM:   5    -0.757334240739E+02   -0.66464E-03   -0.74502E-03  2505   0.259E-01    0.485E-02
RMM:   6    -0.757336735090E+02   -0.24944E-03   -0.28092E-03  2528   0.161E-01    0.159E-02
RMM:   7    -0.757337708959E+02   -0.97387E-04   -0.10283E-03  2331   0.980E-02    0.691E-03
RMM:   8    -0.757337855540E+02   -0.14658E-04   -0.16390E-04  1466   0.635E-02
  92 F= -.75733786E+02 E0= -.75733786E+02  d E =-.634617E-02
       N       E                     dE             d eps       ncg     rms          rms(c)
DAV:   1    -0.757341441117E+02   -0.37322E-03   -0.19622E-01  1896   0.221E+00    0.906E-02
RMM:   2    -0.757345878906E+02   -0.44378E-03   -0.49864E-03  2062   0.320E-01    0.377E-02
RMM:   3    -0.757346716475E+02   -0.83757E-04   -0.10572E-03  2466   0.125E-01    0.299E-02
RMM:   4    -0.757346887256E+02   -0.17078E-04   -0.31896E-04  1937   0.641E-02    0.109E-02
RMM:   5    -0.757346896240E+02   -0.89839E-06   -0.43871E-05  1241   0.485E-02
  93 F= -.75734690E+02 E0= -.75734690E+02  d E =-.904070E-03
       N       E                     dE             d eps       ncg     rms          rms(c)
DAV:   1    -0.757326792406E+02    0.20095E-02   -0.17668E+00  1536   0.663E+00    0.276E-01
RMM:   2    -0.757363939419E+02   -0.37147E-02   -0.42257E-02  2044   0.936E-01    0.112E-01
RMM:   3    -0.757369766198E+02   -0.58268E-03   -0.74756E-03  2491   0.333E-01    0.911E-02
RMM:   4    -0.757370960686E+02   -0.11945E-03   -0.25417E-03  2479   0.160E-01    0.364E-02
RMM:   5    -0.757371946587E+02   -0.98590E-04   -0.10806E-03  2337   0.984E-02    0.171E-02
RMM:   6    -0.757372114811E+02   -0.16822E-04   -0.24861E-04  1600   0.633E-02    0.506E-03
RMM:   7    -0.757372204041E+02   -0.89229E-05   -0.13270E-04  1569   0.529E-02
  94 F= -.75737220E+02 E0= -.75737220E+02  d E =-.343485E-02
       N       E                     dE             d eps       ncg     rms          rms(c)
DAV:   1    -0.757235240019E+02    0.13687E-01   -0.70595E+00  1536   0.133E+01    0.564E-01
RMM:   2    -0.757383696342E+02   -0.14846E-01   -0.16926E-01  2043   0.187E+00    0.224E-01
RMM:   3    -0.757407048153E+02   -0.23352E-02   -0.29842E-02  2518   0.658E-01    0.184E-01
RMM:   4    -0.757411413817E+02   -0.43657E-03   -0.95666E-03  2517   0.314E-01    0.764E-02
RMM:   5    -0.757414960997E+02   -0.35472E-03   -0.39577E-03  2492   0.188E-01    0.349E-02
RMM:   6    -0.757416172915E+02   -0.12119E-03   -0.14870E-03  2447   0.119E-01    0.950E-03
RMM:   7    -0.757416642665E+02   -0.46975E-04   -0.50609E-04  1952   0.759E-02    0.541E-03
RMM:   8    -0.757416670718E+02   -0.28053E-05   -0.55638E-05  1246   0.561E-02
  95 F= -.75741667E+02 E0= -.75741667E+02  d E =-.788152E-02
       N       E                     dE             d eps       ncg     rms          rms(c)
DAV:   1    -0.756686407763E+02    0.73023E-01   -0.28053E+01  1536   0.265E+01    0.120E+00
RMM:   2    -0.757318162493E+02   -0.63175E-01   -0.72527E-01  2039   0.377E+00    0.453E-01
RMM:   3    -0.757440616799E+02   -0.12245E-01   -0.14691E-01  2523   0.137E+00    0.385E-01
RMM:   4    -0.757460122328E+02   -0.19506E-02   -0.40029E-02  2528   0.664E-01    0.179E-01
RMM:   5    -0.757472727380E+02   -0.12605E-02   -0.14903E-02  2526   0.384E-01    0.741E-02
RMM:   6    -0.757477739860E+02   -0.50125E-03   -0.58876E-03  2590   0.242E-01    0.197E-02
RMM:   7    -0.757479922016E+02   -0.21822E-03   -0.23348E-03  2481   0.148E-01    0.114E-02
RMM:   8    -0.757480716914E+02   -0.79490E-04   -0.82527E-04  2270   0.939E-02    0.588E-03
RMM:   9    -0.757480868671E+02   -0.15176E-04   -0.18530E-04  1537   0.641E-02
  96 F= -.75748087E+02 E0= -.75748087E+02  d E =-.143013E-01
       N       E                     dE             d eps       ncg     rms          rms(c)
DAV:   1    -0.753298586244E+02    0.41821E+00   -0.10911E+02  1536   0.525E+01    0.284E+00
RMM:   2    -0.756412634810E+02   -0.31140E+00   -0.36197E+00  2031   0.786E+00    0.949E-01
RMM:   3    -0.757319734361E+02   -0.90710E-01   -0.10023E+00  2521   0.307E+00    0.866E-01
RMM:   4    -0.757441025938E+02   -0.12129E-01   -0.20521E-01  2553   0.149E+00    0.488E-01
RMM:   5    -0.757478389495E+02   -0.37364E-02   -0.57180E-02  2555   0.813E-01    0.185E-01
RMM:   6    -0.757498477147E+02   -0.20088E-02   -0.23236E-02  2629   0.501E-01    0.426E-02
RMM:   7    -0.757506547740E+02   -0.80706E-03   -0.87833E-03  2578   0.300E-01    0.240E-02
RMM:   8    -0.757510012988E+02   -0.34652E-03   -0.36352E-03  2581   0.193E-01    0.169E-02
RMM:   9    -0.757511418555E+02   -0.14056E-03   -0.14717E-03  2441   0.125E-01    0.145E-02
RMM:  10    -0.757511980614E+02   -0.56206E-04   -0.65063E-04  2270   0.849E-02    0.732E-03
RMM:  11    -0.757512109404E+02   -0.12879E-04   -0.15303E-04  1486   0.614E-02
  97 F= -.75751211E+02 E0= -.75751211E+02  d E =-.174254E-01
       N       E                     dE             d eps       ncg     rms          rms(c)
DAV:   1    -0.757359123985E+02    0.15286E-01   -0.80090E+00  1536   0.141E+01    0.681E-01
RMM:   2    -0.757533640353E+02   -0.17452E-01   -0.19885E-01  2048   0.201E+00    0.232E-01
RMM:   3    -0.757560892177E+02   -0.27252E-02   -0.34869E-02  2520   0.711E-01    0.180E-01
RMM:   4    -0.757565873064E+02   -0.49809E-03   -0.11221E-02  2505   0.342E-01    0.717E-02
RMM:   5    -0.757570042862E+02   -0.41698E-03   -0.47116E-03  2484   0.209E-01    0.331E-02
RMM:   6    -0.757571646955E+02   -0.16041E-03   -0.19108E-03  2475   0.136E-01    0.999E-03
RMM:   7    -0.757572360128E+02   -0.71317E-04   -0.76702E-04  2191   0.889E-02    0.572E-03
RMM:   8    -0.757572493606E+02   -0.13348E-04   -0.15989E-04  1476   0.630E-02
  98 F= -.75757249E+02 E0= -.75757249E+02  d E =-.603842E-02
       N       E                     dE             d eps       ncg     rms          rms(c)
DAV:   1    -0.755213511911E+02    0.23588E+00   -0.70482E+01  1536   0.420E+01    0.229E+00
RMM:   2    -0.757086709416E+02   -0.18732E+00   -0.21601E+00  2039   0.623E+00    0.715E-01
RMM:   3    -0.757549550487E+02   -0.46284E-01   -0.52566E-01  2522   0.236E+00    0.587E-01
RMM:   4    -0.757613203397E+02   -0.63653E-02   -0.11837E-01  2526   0.115E+00    0.308E-01
RMM:   5    -0.757640402602E+02   -0.27199E-02   -0.37779E-02  2528   0.649E-01    0.116E-01
RMM:   6    -0.757654664157E+02   -0.14262E-02   -0.16290E-02  2635   0.414E-01    0.299E-02
RMM:   7    -0.757660690792E+02   -0.60266E-03   -0.63682E-03  2511   0.249E-01    0.181E-02
RMM:   8    -0.757663072624E+02   -0.23818E-03   -0.24473E-03  2535   0.159E-01    0.835E-03
RMM:   9    -0.757664055406E+02   -0.98278E-04   -0.10357E-03  2367   0.104E-01    0.418E-03
RMM:  10    -0.757664372063E+02   -0.31666E-04   -0.33620E-04  1757   0.727E-02    0.239E-03
RMM:  11    -0.757664427611E+02   -0.55548E-05   -0.83213E-05  1340   0.596E-02
  99 F= -.75766443E+02 E0= -.75766443E+02  d E =-.152318E-01
       N       E                     dE             d eps       ncg     rms          rms(c)
DAV:   1    -0.757687091798E+02   -0.22720E-02   -0.18469E+00  1680   0.669E+00    0.397E-01
RMM:   2    -0.757733169093E+02   -0.46077E-02   -0.53673E-02  2031   0.105E+00    0.113E-01
RMM:   3    -0.757739393459E+02   -0.62244E-03   -0.90982E-03  2501   0.370E-01    0.958E-02
RMM:   4    -0.757740888602E+02   -0.14951E-03   -0.31522E-03  2487   0.176E-01    0.475E-02
RMM:   5    -0.757742094480E+02   -0.12059E-03   -0.13779E-03  2359   0.112E-01    0.222E-02
RMM:   6    -0.757742516185E+02   -0.42171E-04   -0.46969E-04  1805   0.747E-02    0.423E-03
RMM:   7    -0.757742575253E+02   -0.59068E-05   -0.91055E-05  1417   0.573E-02
 100 F= -.75774258E+02 E0= -.75774258E+02  d E =-.781476E-02
