<?xml version="1.0" encoding="ISO-8859-1"?>
<modeling>
 <generator>
  <i name="program" type="string">vasp </i>
  <i name="version" type="string">5.4.4.18Apr17-6-g9f103f2a35  </i>
  <i name="subversion" type="string">(build Feb 28 2020 14:15:47) complex            parallel </i>
  <i name="platform" type="string">LinuxIFC </i>
  <i name="date" type="string">2022 08 17 </i>
  <i name="time" type="string">02:08:49 </i>
 </generator>
 <incar>
  <i type="int" name="ISTART">     0</i>
  <i type="string" name="PREC">accurate</i>
  <i type="string" name="ALGO"> FAST</i>
  <i type="int" name="ISPIN">     1</i>
  <i type="int" name="ICHARG">     2</i>
  <i type="int" name="INIWAV">     1</i>
  <i type="int" name="NELM">   100</i>
  <i type="int" name="IBRION">     2</i>
  <i name="EDIFF">      0.00002000</i>
  <i name="EDIFFG">      0.00020000</i>
  <i type="int" name="NSW">   100</i>
  <i type="int" name="ISIF">     3</i>
  <i name="ENCUT">    420.00000000</i>
  <i type="string" name="LREAL"> AUTO</i>
  <i type="int" name="ISMEAR">    -5</i>
  <i type="logical" name="LWAVE"> F  </i>
  <i type="logical" name="LCHARG"> F  </i>
  <v type="int" name="KPOINT_BSE">    -1     0     0     0</v>
  <i type="int" name="NELM">   100</i>
 </incar>
 <structure name="primitive_cell" >
  <crystal>
   <varray name="basis" >
    <v>       6.03424465       0.00000000       0.84433977 </v>
    <v>       0.00000000       5.82474312       0.00000000 </v>
    <v>       1.19250585       0.00000000       8.94489645 </v>
   </varray>
   <i name="volume">    308.52973162 </i>
   <varray name="rec_basis" >
    <v>       0.16887100       0.00000000      -0.02251336 </v>
    <v>       0.00000000       0.17168139       0.00000000 </v>
    <v>      -0.01594032       0.00000000       0.11392071 </v>
   </varray>
  </crystal>
  <varray name="positions" >
   <v>       0.26622992       0.18339374      -0.46007424 </v>
   <v>      -0.48294505       0.21348878       0.34213899 </v>
   <v>       0.20069012      -0.49045653      -0.38088852 </v>
   <v>       0.34849044      -0.05242237      -0.31697439 </v>
   <v>      -0.00807646       0.07000580       0.46584500 </v>
   <v>      -0.09112506       0.26084740      -0.27602990 </v>
   <v>      -0.33673388       0.22364375      -0.36244553 </v>
   <v>      -0.04689415      -0.20604474      -0.39717599 </v>
   <v>       0.34849044       0.05242237       0.18302561 </v>
   <v>      -0.00807646      -0.07000580      -0.03415500 </v>
   <v>      -0.48294505      -0.21348878      -0.15786101 </v>
   <v>       0.20069012       0.49045653       0.11911148 </v>
   <v>      -0.33673388      -0.22364375       0.13755447 </v>
   <v>      -0.09112506      -0.26084740       0.22397010 </v>
   <v>      -0.04689415       0.20604474       0.10282401 </v>
   <v>       0.26622992      -0.18339374       0.03992576 </v>
  </varray>
 </structure>
 <varray name="primitive_index" >
  <v type="int" >        1 </v>
  <v type="int" >        9 </v>
  <v type="int" >        3 </v>
  <v type="int" >        7 </v>
  <v type="int" >        5 </v>
  <v type="int" >       13 </v>
  <v type="int" >       12 </v>
  <v type="int" >       15 </v>
  <v type="int" >        8 </v>
  <v type="int" >        6 </v>
  <v type="int" >       10 </v>
  <v type="int" >        4 </v>
  <v type="int" >       11 </v>
  <v type="int" >       14 </v>
  <v type="int" >       16 </v>
  <v type="int" >        2 </v>
 </varray>
 <kpoints>
  <generation param="Monkhorst-Pack">
   <v type="int" name="divisions">       4        4        4 </v>
   <v name="usershift">      0.00000000       0.00000000       0.00000000 </v>
   <v name="genvec1">      0.25000000       0.00000000       0.00000000 </v>
   <v name="genvec2">      0.00000000       0.25000000       0.00000000 </v>
   <v name="genvec3">      0.00000000       0.00000000       0.25000000 </v>
   <v name="shift">      0.50000000       0.50000000       0.50000000 </v>
  </generation>
  <varray name="kpointlist" >
   <v>       0.12500000       0.12500000       0.12500000 </v>
   <v>       0.37500000       0.12500000       0.12500000 </v>
   <v>      -0.37500000       0.12500000       0.12500000 </v>
   <v>      -0.12500000       0.12500000       0.12500000 </v>
   <v>       0.12500000       0.37500000       0.12500000 </v>
   <v>       0.37500000       0.37500000       0.12500000 </v>
   <v>      -0.37500000       0.37500000       0.12500000 </v>
   <v>      -0.12500000       0.37500000       0.12500000 </v>
   <v>       0.12500000       0.12500000       0.37500000 </v>
   <v>       0.37500000       0.12500000       0.37500000 </v>
   <v>      -0.37500000       0.12500000       0.37500000 </v>
   <v>      -0.12500000       0.12500000       0.37500000 </v>
   <v>       0.12500000       0.37500000       0.37500000 </v>
   <v>       0.37500000       0.37500000       0.37500000 </v>
   <v>      -0.37500000       0.37500000       0.37500000 </v>
   <v>      -0.12500000       0.37500000       0.37500000 </v>
  </varray>
  <varray name="weights" >
   <v>       0.06250000 </v>
   <v>       0.06250000 </v>
   <v>       0.06250000 </v>
   <v>       0.06250000 </v>
   <v>       0.06250000 </v>
   <v>       0.06250000 </v>
   <v>       0.06250000 </v>
   <v>       0.06250000 </v>
   <v>       0.06250000 </v>
   <v>       0.06250000 </v>
   <v>       0.06250000 </v>
   <v>       0.06250000 </v>
   <v>       0.06250000 </v>
   <v>       0.06250000 </v>
   <v>       0.06250000 </v>
   <v>       0.06250000 </v>
  </varray>
  <varray name="tetrahedronlist"  type="int" >
   <v type="int" >        2        1        2        5       10 </v>
   <v type="int" >        2        2        5        6       10 </v>
   <v type="int" >        2        5        6       10       14 </v>
   <v type="int" >        2        1        5        9       10 </v>
   <v type="int" >        2        5        9       10       13 </v>
   <v type="int" >        2        5       10       13       14 </v>
   <v type="int" >        2        2        3        6       11 </v>
   <v type="int" >        2        3        6        7       11 </v>
   <v type="int" >        2        6        7       11       15 </v>
   <v type="int" >        2        2        6       10       11 </v>
   <v type="int" >        2        6       10       11       14 </v>
   <v type="int" >        2        6       11       14       15 </v>
   <v type="int" >        2        3        4        7       12 </v>
   <v type="int" >        2        4        7        8       12 </v>
   <v type="int" >        2        7        8       12       16 </v>
   <v type="int" >        2        3        7       11       12 </v>
   <v type="int" >        2        7       11       12       15 </v>
   <v type="int" >        2        7       12       15       16 </v>
   <v type="int" >        2        1        4        8        9 </v>
   <v type="int" >        2        1        5        8        9 </v>
   <v type="int" >        2        5        8        9       13 </v>
   <v type="int" >        2        4        8        9       12 </v>
   <v type="int" >        2        8        9       12       16 </v>
   <v type="int" >        2        8        9       13       16 </v>
   <v type="int" >        2        5        5        6       14 </v>
   <v type="int" >        2        5        6        6       14 </v>
   <v type="int" >        2        5        6       14       14 </v>
   <v type="int" >        2        5        5       13       14 </v>
   <v type="int" >        2        5       13       13       14 </v>
   <v type="int" >        2        5       13       14       14 </v>
   <v type="int" >        2        6        6        7       15 </v>
   <v type="int" >        2        6        7        7       15 </v>
   <v type="int" >        2        6        7       15       15 </v>
   <v type="int" >        2        6        6       14       15 </v>
   <v type="int" >        2        6       14       14       15 </v>
   <v type="int" >        2        6       14       15       15 </v>
   <v type="int" >        2        7        7        8       16 </v>
   <v type="int" >        2        7        8        8       16 </v>
   <v type="int" >        2        7        8       16       16 </v>
   <v type="int" >        2        7        7       15       16 </v>
   <v type="int" >        2        7       15       15       16 </v>
   <v type="int" >        2        7       15       16       16 </v>
   <v type="int" >        2        5        8        8       13 </v>
   <v type="int" >        2        5        5        8       13 </v>
   <v type="int" >        2        5        8       13       13 </v>
   <v type="int" >        2        8        8       13       16 </v>
   <v type="int" >        2        8       13       16       16 </v>
   <v type="int" >        2        8       13       13       16 </v>
   <v type="int" >        2        1        5        6       14 </v>
   <v type="int" >        2        1        2        6       14 </v>
   <v type="int" >        2        1        2       10       14 </v>
   <v type="int" >        2        1        5       13       14 </v>
   <v type="int" >        2        1        9       13       14 </v>
   <v type="int" >        2        1        9       10       14 </v>
   <v type="int" >        2        2        6        7       15 </v>
   <v type="int" >        2        2        3        7       15 </v>
   <v type="int" >        2        2        3       11       15 </v>
   <v type="int" >        2        2        6       14       15 </v>
   <v type="int" >        2        2       10       14       15 </v>
   <v type="int" >        2        2       10       11       15 </v>
   <v type="int" >        2        3        7        8       16 </v>
   <v type="int" >        2        3        4        8       16 </v>
   <v type="int" >        2        3        4       12       16 </v>
   <v type="int" >        2        3        7       15       16 </v>
   <v type="int" >        2        3       11       15       16 </v>
   <v type="int" >        2        3       11       12       16 </v>
   <v type="int" >        2        4        5        8       13 </v>
   <v type="int" >        2        1        4        5       13 </v>
   <v type="int" >        2        1        4        9       13 </v>
   <v type="int" >        2        4        8       13       16 </v>
   <v type="int" >        2        4       12       13       16 </v>
   <v type="int" >        2        4        9       12       13 </v>
   <v type="int" >        2        1        1        2       10 </v>
   <v type="int" >        2        1        2        2       10 </v>
   <v type="int" >        2        1        2       10       10 </v>
   <v type="int" >        2        1        1        9       10 </v>
   <v type="int" >        2        1        9        9       10 </v>
   <v type="int" >        2        1        9       10       10 </v>
   <v type="int" >        2        2        2        3       11 </v>
   <v type="int" >        2        2        3        3       11 </v>
   <v type="int" >        2        2        3       11       11 </v>
   <v type="int" >        2        2        2       10       11 </v>
   <v type="int" >        2        2       10       10       11 </v>
   <v type="int" >        2        2       10       11       11 </v>
   <v type="int" >        2        3        3        4       12 </v>
   <v type="int" >        2        3        4        4       12 </v>
   <v type="int" >        2        3        4       12       12 </v>
   <v type="int" >        2        3        3       11       12 </v>
   <v type="int" >        2        3       11       11       12 </v>
   <v type="int" >        2        3       11       12       12 </v>
   <v type="int" >        2        1        4        4        9 </v>
   <v type="int" >        2        1        1        4        9 </v>
   <v type="int" >        2        1        4        9        9 </v>
   <v type="int" >        2        4        4        9       12 </v>
   <v type="int" >        2        4        9       12       12 </v>
   <v type="int" >        2        4        9        9       12 </v>
   <v type="int" >        2        9       10       11       13 </v>
   <v type="int" >        2       10       11       13       14 </v>
   <v type="int" >        2       11       13       14       15 </v>
   <v type="int" >        2        9       11       12       13 </v>
   <v type="int" >        2       11       12       13       16 </v>
   <v type="int" >        2       11       13       15       16 </v>
   <v type="int" >        4       10       10       11       14 </v>
   <v type="int" >        4       10       11       14       15 </v>
   <v type="int" >        4       10       14       14       15 </v>
   <v type="int" >        2        9       11       12       15 </v>
   <v type="int" >        2        9       12       15       16 </v>
   <v type="int" >        2        9       13       15       16 </v>
   <v type="int" >        2        9       10       11       15 </v>
   <v type="int" >        2        9       10       14       15 </v>
   <v type="int" >        2        9       13       14       15 </v>
   <v type="int" >        4        9       12       12       16 </v>
   <v type="int" >        4        9       12       13       16 </v>
   <v type="int" >        4       12       13       16       16 </v>
   <v type="int" >        2       13       13       14       15 </v>
   <v type="int" >        2       13       14       14       15 </v>
   <v type="int" >        2       13       14       15       15 </v>
   <v type="int" >        2       13       13       15       16 </v>
   <v type="int" >        2       13       15       16       16 </v>
   <v type="int" >        2       13       15       15       16 </v>
   <v type="int" >        4       14       14       14       15 </v>
   <v type="int" >        2       14       14       15       15 </v>
   <v type="int" >        4       13       16       16       16 </v>
   <v type="int" >        2       13       13       16       16 </v>
   <v type="int" >        2        9        9       10       11 </v>
   <v type="int" >        2        9       10       10       11 </v>
   <v type="int" >        2        9       10       11       11 </v>
   <v type="int" >        2        9        9       11       12 </v>
   <v type="int" >        2        9       11       12       12 </v>
   <v type="int" >        2        9       11       11       12 </v>
   <v type="int" >        4       10       10       10       11 </v>
   <v type="int" >        2       10       10       11       11 </v>
   <v type="int" >        4        9       12       12       12 </v>
   <v type="int" >        2        9        9       12       12 </v>
   <v type="int" >        2        2        3        4        8 </v>
   <v type="int" >        2        2        3        7        8 </v>
   <v type="int" >        2        2        6        7        8 </v>
   <v type="int" >        2        1        2        4        8 </v>
   <v type="int" >        2        1        2        5        8 </v>
   <v type="int" >        2        2        5        6        8 </v>
   <v type="int" >        4        2        3        3        7 </v>
   <v type="int" >        4        2        3        6        7 </v>
   <v type="int" >        4        3        6        7        7 </v>
   <v type="int" >        2        1        2        4        6 </v>
   <v type="int" >        2        1        4        5        6 </v>
   <v type="int" >        2        4        5        6        8 </v>
   <v type="int" >        2        2        3        4        6 </v>
   <v type="int" >        2        3        4        6        7 </v>
   <v type="int" >        2        4        6        7        8 </v>
   <v type="int" >        4        1        1        4        5 </v>
   <v type="int" >        4        1        4        5        8 </v>
   <v type="int" >        4        1        5        5        8 </v>
   <v type="int" >        2        6        7        8        8 </v>
   <v type="int" >        2        6        7        7        8 </v>
   <v type="int" >        2        6        6        7        8 </v>
   <v type="int" >        2        5        6        8        8 </v>
   <v type="int" >        2        5        5        6        8 </v>
   <v type="int" >        2        5        6        6        8 </v>
   <v type="int" >        4        6        7        7        7 </v>
   <v type="int" >        2        6        6        7        7 </v>
   <v type="int" >        4        5        5        5        8 </v>
   <v type="int" >        2        5        5        8        8 </v>
   <v type="int" >        2        2        3        4        4 </v>
   <v type="int" >        2        2        3        3        4 </v>
   <v type="int" >        2        2        2        3        4 </v>
   <v type="int" >        2        1        2        4        4 </v>
   <v type="int" >        2        1        1        2        4 </v>
   <v type="int" >        2        1        2        2        4 </v>
   <v type="int" >        4        2        3        3        3 </v>
   <v type="int" >        2        2        2        3        3 </v>
   <v type="int" >        4        1        1        1        4 </v>
   <v type="int" >        2        1        1        4        4 </v>
  </varray>
  <i name="volumeweight">      0.00260417 </i>
 </kpoints>
 <parameters>
  <separator name="general" >
   <i type="string" name="SYSTEM">unknown system</i>
   <i type="logical" name="LCOMPAT"> F  </i>
  </separator>
  <separator name="electronic" >
   <i type="string" name="PREC">accura</i>
   <i name="ENMAX">    420.00000000</i>
   <i name="ENAUG">    628.94500000</i>
   <i name="EDIFF">      0.00002000</i>
   <i type="int" name="IALGO">    68</i>
   <i type="int" name="IWAVPR">    11</i>
   <i type="int" name="NBANDS">    48</i>
   <i name="NELECT">     76.00000000</i>
   <i type="int" name="TURBO">     0</i>
   <i type="int" name="IRESTART">     0</i>
   <i type="int" name="NREBOOT">     0</i>
   <i type="int" name="NMIN">     0</i>
   <i name="EREF">      0.00000000</i>
   <separator name="electronic smearing" >
    <i type="int" name="ISMEAR">    -5</i>
    <i name="SIGMA">      0.20000000</i>
    <i name="KSPACING">      0.50000000</i>
    <i type="logical" name="KGAMMA"> T  </i>
   </separator>
   <separator name="electronic projectors" >
    <i type="logical" name="LREAL"> T  </i>
    <v name="ROPT">     -0.00025000     -0.00025000     -0.00025000</v>
    <i type="int" name="LMAXPAW">  -100</i>
    <i type="int" name="LMAXMIX">     2</i>
    <i type="logical" name="NLSPLINE"> F  </i>
   </separator>
   <separator name="electronic startup" >
    <i type="int" name="ISTART">     0</i>
    <i type="int" name="ICHARG">     2</i>
    <i type="int" name="INIWAV">     1</i>
   </separator>
   <separator name="electronic spin" >
    <i type="int" name="ISPIN">     1</i>
    <i type="logical" name="LNONCOLLINEAR"> F  </i>
    <v name="MAGMOM">      1.00000000      1.00000000      1.00000000      1.00000000      1.00000000      1.00000000      1.00000000      1.00000000      1.00000000      1.00000000      1.00000000      1.00000000      1.00000000      1.00000000      1.00000000      1.00000000</v>
    <i name="NUPDOWN">     -1.00000000</i>
    <i type="logical" name="LSORBIT"> F  </i>
    <v name="SAXIS">      0.00000000      0.00000000      1.00000000</v>
    <i type="logical" name="LSPIRAL"> F  </i>
    <v name="QSPIRAL">      0.00000000      0.00000000      0.00000000</v>
    <i type="logical" name="LZEROZ"> F  </i>
   </separator>
   <separator name="electronic exchange-correlation" >
    <i type="logical" name="LASPH"> F  </i>
    <i type="logical" name="LMETAGGA"> F  </i>
   </separator>
   <separator name="electronic convergence" >
    <i type="int" name="NELM">   100</i>
    <i type="int" name="NELMDL">    -5</i>
    <i type="int" name="NELMIN">     2</i>
    <i name="ENINI">    420.00000000</i>
    <separator name="electronic convergence detail" >
     <i type="logical" name="LDIAG"> T  </i>
     <i type="logical" name="LSUBROT"> F  </i>
     <i name="WEIMIN">      0.00100000</i>
     <i name="EBREAK">      0.00000010</i>
     <i name="DEPER">      0.30000000</i>
     <i type="int" name="NRMM">     4</i>
     <i name="TIME">      0.40000000</i>
    </separator>
   </separator>
   <separator name="electronic mixer" >
    <i name="AMIX">      0.40000000</i>
    <i name="BMIX">      1.00000000</i>
    <i name="AMIN">      0.10000000</i>
    <i name="AMIX_MAG">      1.60000000</i>
    <i name="BMIX_MAG">      1.00000000</i>
    <separator name="electronic mixer details" >
     <i type="int" name="IMIX">     4</i>
     <i type="logical" name="MIXFIRST"> F  </i>
     <i type="int" name="MAXMIX">   -45</i>
     <i name="WC">    100.00000000</i>
     <i type="int" name="INIMIX">     1</i>
     <i type="int" name="MIXPRE">     1</i>
     <i type="int" name="MREMOVE">     5</i>
    </separator>
   </separator>
   <separator name="electronic dipolcorrection" >
    <i type="logical" name="LDIPOL"> F  </i>
    <i type="logical" name="LMONO"> F  </i>
    <i type="int" name="IDIPOL">     0</i>
    <i name="EPSILON">      1.00000000</i>
    <v name="DIPOL">   -100.00000000   -100.00000000   -100.00000000</v>
    <i name="EFIELD">      0.00000000</i>
   </separator>
  </separator>
  <separator name="grids" >
   <i type="int" name="NGX">    42</i>
   <i type="int" name="NGY">    40</i>
   <i type="int" name="NGZ">    60</i>
   <i type="int" name="NGXF">    84</i>
   <i type="int" name="NGYF">    80</i>
   <i type="int" name="NGZF">   120</i>
   <i type="logical" name="ADDGRID"> F  </i>
  </separator>
  <separator name="ionic" >
   <i type="int" name="NSW">   100</i>
   <i type="int" name="IBRION">     2</i>
   <i type="int" name="MDALGO">     0</i>
   <i type="int" name="ISIF">     3</i>
   <i name="PSTRESS">      0.00000000</i>
   <i name="EDIFFG">      0.00020000</i>
   <i type="int" name="NFREE">     1</i>
   <i name="POTIM">      0.50000000</i>
   <i name="SMASS">     -3.00000000</i>
   <i name="SCALEE">      1.00000000</i>
  </separator>
  <separator name="ionic md" >
   <i name="TEBEG">      0.00010000</i>
   <i name="TEEND">      0.00010000</i>
   <i type="int" name="NBLOCK">     1</i>
   <i type="int" name="KBLOCK">   100</i>
   <i type="int" name="NPACO">   256</i>
   <i name="APACO">     16.00000000</i>
  </separator>
  <separator name="symmetry" >
   <i type="int" name="ISYM">     2</i>
   <i name="SYMPREC">      0.00001000</i>
  </separator>
  <separator name="dos" >
   <i type="int" name="LORBIT">     0</i>
   <v name="RWIGS">     -1.00000000     -1.00000000     -1.00000000</v>
   <i type="int" name="NEDOS">   301</i>
   <i name="EMIN">     10.00000000</i>
   <i name="EMAX">    -10.00000000</i>
   <i name="EFERMI">      0.00000000</i>
  </separator>
  <separator name="writing" >
   <i type="int" name="NWRITE">     2</i>
   <i type="logical" name="LWAVE"> F  </i>
   <i type="logical" name="LDOWNSAMPLE"> F  </i>
   <i type="logical" name="LCHARG"> F  </i>
   <i type="logical" name="LPARD"> F  </i>
   <i type="logical" name="LVTOT"> F  </i>
   <i type="logical" name="LVHAR"> F  </i>
   <i type="logical" name="LELF"> F  </i>
   <i type="logical" name="LOPTICS"> F  </i>
   <v name="STM">      0.00000000      0.00000000      0.00000000      0.00000000      0.00000000      0.00000000      0.00000000</v>
  </separator>
  <separator name="performance" >
   <i type="int" name="NPAR">     4</i>
   <i type="int" name="NSIM">     4</i>
   <i type="int" name="NBLK">    -1</i>
   <i type="logical" name="LPLANE"> T  </i>
   <i type="logical" name="LSCALAPACK"> T  </i>
   <i type="logical" name="LSCAAWARE"> F  </i>
   <i type="logical" name="LSCALU"> F  </i>
   <i type="logical" name="LASYNC"> F  </i>
   <i type="logical" name="LORBITALREAL"> F  </i>
  </separator>
  <separator name="miscellaneous" >
   <i type="int" name="IDIOT">     3</i>
   <i type="int" name="ISPECIAL">     0</i>
   <i type="logical" name="LMUSIC"> F  </i>
   <v name="POMASS">     30.97400000     32.06600000      7.01000000</v>
   <v name="DARWINR">      0.00000000      0.00000000      0.00000000</v>
   <v name="DARWINV">      1.00000000      1.00000000      1.00000000</v>
   <i type="logical" name="LCORR"> T  </i>
  </separator>
  <i type="logical" name="GGA_COMPAT"> T  </i>
  <i type="logical" name="LBERRY"> F  </i>
  <i type="int" name="ICORELEVEL">     0</i>
  <i type="logical" name="LDAU"> F  </i>
  <i type="int" name="I_CONSTRAINED_M">     0</i>
  <separator name="electronic exchange-correlation" >
   <i type="string" name="GGA">--</i>
   <i type="int" name="VOSKOWN">     0</i>
   <i type="logical" name="LHFCALC"> F  </i>
   <i type="string" name="PRECFOCK"></i>
   <i type="logical" name="LSYMGRAD"> F  </i>
   <i type="logical" name="LHFONE"> F  </i>
   <i type="logical" name="LRHFCALC"> F  </i>
   <i type="logical" name="LTHOMAS"> F  </i>
   <i type="logical" name="LMODELHF"> F  </i>
   <i name="ENCUT4O">     -1.00000000</i>
   <i type="int" name="EXXOEP">     0</i>
   <i type="int" name="FOURORBIT">     0</i>
   <i name="AEXX">      0.00000000</i>
   <i name="HFALPHA">      0.00000000</i>
   <i name="MCALPHA">      0.00000000</i>
   <i name="ALDAX">      1.00000000</i>
   <i name="AGGAX">      1.00000000</i>
   <i name="ALDAC">      1.00000000</i>
   <i name="AGGAC">      1.00000000</i>
   <i type="int" name="NKREDX">     1</i>
   <i type="int" name="NKREDY">     1</i>
   <i type="int" name="NKREDZ">     1</i>
   <i type="logical" name="SHIFTRED"> F  </i>
   <i type="logical" name="ODDONLY"> F  </i>
   <i type="logical" name="EVENONLY"> F  </i>
   <i type="int" name="LMAXFOCK">     0</i>
   <i type="int" name="NMAXFOCKAE">     0</i>
   <i type="logical" name="LFOCKAEDFT"> F  </i>
   <i name="HFSCREEN">      0.00000000</i>
   <i name="HFSCREENC">      0.00000000</i>
   <i type="int" name="NBANDSGWLOW">     0</i>
  </separator>
  <separator name="vdW DFT" >
   <i type="logical" name="LUSE_VDW"> F  </i>
   <i name="Zab_VDW">     -0.84910000</i>
   <i name="PARAM1">      0.12340000</i>
   <i name="PARAM2">      1.00000000</i>
   <i name="PARAM3">      0.00000000</i>
  </separator>
  <separator name="model GW" >
   <i type="int" name="MODEL_GW">     0</i>
   <i name="MODEL_EPS0">     11.56986494</i>
   <i name="MODEL_ALPHA">      1.00000000</i>
  </separator>
  <separator name="linear response parameters" >
   <i type="logical" name="LEPSILON"> F  </i>
   <i type="logical" name="LRPA"> F  </i>
   <i type="logical" name="LNABLA"> F  </i>
   <i type="logical" name="LVEL"> F  </i>
   <i type="int" name="KINTER">     0</i>
   <i name="CSHIFT">      0.10000000</i>
   <i name="OMEGAMAX">     -1.00000000</i>
   <i name="DEG_THRESHOLD">      0.00200000</i>
   <i name="RTIME">     -0.10000000</i>
   <i name="WPLASMAI">      0.00000000</i>
   <v name="DFIELD">      0.00000000      0.00000000      0.00000000</v>
   <v name="WPLASMA">      0.00000000      0.00000000      0.00000000      0.00000000      0.00000000      0.00000000      0.00000000      0.00000000      0.00000000</v>
  </separator>
  <separator name="orbital magnetization" >
   <i type="logical" name="NUCIND"> F  </i>
   <v name="MAGPOS">      0.00000000      0.00000000      0.00000000</v>
   <i type="logical" name="LNICSALL"> T  </i>
   <i type="logical" name="ORBITALMAG"> F  </i>
   <i type="logical" name="LMAGBLOCH"> F  </i>
   <i type="logical" name="LCHIMAG"> F  </i>
   <i type="logical" name="LGAUGE"> T  </i>
   <i type="int" name="MAGATOM">     0</i>
   <v name="MAGDIPOL">      0.00000000      0.00000000      0.00000000</v>
   <v name="AVECCONST">      0.00000000      0.00000000      0.00000000</v>
  </separator>
  <separator name="response functions" >
   <i type="logical" name="LADDER"> F  </i>
   <i type="logical" name="LRPAFORCE"> F  </i>
   <i type="logical" name="LFXC"> F  </i>
   <i type="logical" name="LHARTREE"> T  </i>
   <i type="int" name="IBSE">     0</i>
   <v type="int" name="KPOINT">    -1     0     0     0</v>
   <i type="logical" name="LTCTE"> F  </i>
   <i type="logical" name="LTETE"> F  </i>
   <i type="logical" name="LTRIPLET"> F  </i>
   <i type="logical" name="LFXCEPS"> F  </i>
   <i type="logical" name="LFXHEG"> F  </i>
   <i type="int" name="NATURALO">     2</i>
   <i type="logical" name="L2ORDER"> F  </i>
   <i type="logical" name="LMP2LT"> F  </i>
   <i type="logical" name="LUSEW"> F  </i>
   <i name="ENCUTGW">     -2.00000000</i>
   <i name="ENCUTGWSOFT">     -2.00000000</i>
   <i name="ENCUTLF">     -1.00000000</i>
   <i type="int" name="LMAXMP2">    -1</i>
   <i name="SCISSOR">      0.00000000</i>
   <i type="int" name="NOMEGA">     0</i>
   <i type="int" name="NOMEGAR">     0</i>
   <i type="int" name="NBANDSGW">    -1</i>
   <i type="int" name="NBANDSO">    -1</i>
   <i type="int" name="NBANDSV">    -1</i>
   <i type="int" name="NELM">   100</i>
   <i type="int" name="NELMHF">     1</i>
   <i type="int" name="DIM">     3</i>
   <i type="int" name="ANTIRES">     0</i>
   <i name="OMEGAMAX">    -30.00000000</i>
   <i name="OMEGAMIN">    -30.00000000</i>
   <i name="OMEGATL">   -200.00000000</i>
   <i type="int" name="OMEGAGRID">   140</i>
   <i name="CSHIFT">     -0.10000000</i>
   <i type="logical" name="SELFENERGY"> F  </i>
   <i type="logical" name="LSPECTRAL"> F  </i>
   <i type="logical" name="LSPECTRALGW"> F  </i>
   <i type="logical" name="LSINGLES"> F  </i>
   <i type="logical" name="LFERMIGW"> F  </i>
   <i type="logical" name="ODDONLYGW"> F  </i>
   <i type="logical" name="EVENONLYGW"> F  </i>
   <i type="int" name="NKREDLFX">     1</i>
   <i type="int" name="NKREDLFY">     1</i>
   <i type="int" name="NKREDLFZ">     1</i>
   <i type="int" name="MAXMEM">  2800</i>
   <i type="int" name="TELESCOPE">     0</i>
   <i type="int" name="TAUPAR">     1</i>
   <i type="int" name="OMEGAPAR">    -1</i>
   <i name="LAMBDA">      1.00000000</i>
  </separator>
  <separator name="External order field" >
   <i name="OFIELD_KAPPA">      0.00000000</i>
   <v name="OFIELD_K">      0.00000000      0.00000000      0.00000000</v>
   <i name="OFIELD_Q6_NEAR">      0.00000000</i>
   <i name="OFIELD_Q6_FAR">      0.00000000</i>
   <i name="OFIELD_A">      0.00000000</i>
  </separator>
 </parameters>
 <atominfo>
  <atoms>      16 </atoms>
  <types>       3 </types>
  <array name="atoms" >
   <dimension dim="1">ion</dimension>
   <field type="string">element</field>
   <field type="int">atomtype</field>
   <set>
    <rc><c>P </c><c>   1</c></rc>
    <rc><c>P </c><c>   1</c></rc>
    <rc><c>S </c><c>   2</c></rc>
    <rc><c>S </c><c>   2</c></rc>
    <rc><c>S </c><c>   2</c></rc>
    <rc><c>S </c><c>   2</c></rc>
    <rc><c>S </c><c>   2</c></rc>
    <rc><c>S </c><c>   2</c></rc>
    <rc><c>S </c><c>   2</c></rc>
    <rc><c>S </c><c>   2</c></rc>
    <rc><c>Li</c><c>   3</c></rc>
    <rc><c>Li</c><c>   3</c></rc>
    <rc><c>Li</c><c>   3</c></rc>
    <rc><c>Li</c><c>   3</c></rc>
    <rc><c>Li</c><c>   3</c></rc>
    <rc><c>Li</c><c>   3</c></rc>
   </set>
  </array>
  <array name="atomtypes" >
   <dimension dim="1">type</dimension>
   <field type="int">atomspertype</field>
   <field type="string">element</field>
   <field>mass</field>
   <field>valence</field>
   <field type="string">pseudopotential</field>
   <set>
    <rc><c>   2</c><c>P </c><c>     30.97400000</c><c>      5.00000000</c><c>  PAW P 26Mar2009                       </c></rc>
    <rc><c>   8</c><c>S </c><c>     32.06600000</c><c>      6.00000000</c><c>  PAW S 27Mar2009                       </c></rc>
    <rc><c>   6</c><c>Li</c><c>      7.01000000</c><c>      3.00000000</c><c>  PAW Li_sv 10Sep2004                   </c></rc>
   </set>
  </array>
 </atominfo>
 <structure name="initialpos" >
  <crystal>
   <varray name="basis" >
    <v>       6.03424465       0.00000000       0.84433977 </v>
    <v>       0.00000000       5.82474312       0.00000000 </v>
    <v>       1.19250585       0.00000000       8.94489645 </v>
   </varray>
   <i name="volume">    308.52973162 </i>
   <varray name="rec_basis" >
    <v>       0.16887100       0.00000000      -0.02251336 </v>
    <v>       0.00000000       0.17168139       0.00000000 </v>
    <v>      -0.01594032       0.00000000       0.11392071 </v>
   </varray>
  </crystal>
  <varray name="positions" >
   <v>       0.26622992       0.18339374       0.53992576 </v>
   <v>       0.26622992       0.81660626       0.03992576 </v>
   <v>       0.20069012       0.50954347       0.61911148 </v>
   <v>       0.20069012       0.49045653       0.11911148 </v>
   <v>       0.99192354       0.07000580       0.46584500 </v>
   <v>       0.99192354       0.92999420       0.96584500 </v>
   <v>       0.34849044       0.94757763       0.68302561 </v>
   <v>       0.34849044       0.05242237       0.18302561 </v>
   <v>       0.51705495       0.21348878       0.34213899 </v>
   <v>       0.51705495       0.78651122       0.84213899 </v>
   <v>       0.66326612       0.77635625       0.13755447 </v>
   <v>       0.66326612       0.22364375       0.63755447 </v>
   <v>       0.90887494       0.26084740       0.72397010 </v>
   <v>       0.90887494       0.73915260       0.22397010 </v>
   <v>       0.95310585       0.79395526       0.60282401 </v>
   <v>       0.95310585       0.20604474       0.10282401 </v>
  </varray>
 </structure>
 <calculation>
  <scstep>
   <time name="dav">    0.38    0.44</time>
   <time name="total">    0.40    0.49</time>
   <energy>
    <i name="alphaZ">     63.95804420 </i>
    <i name="ewald">  -2407.65594150 </i>
    <i name="hartreedc">   -876.24138283 </i>
    <i name="XCdc">    182.78939721 </i>
    <i name="pawpsdc">   2494.22442938 </i>
    <i name="pawaedc">  -2541.12215007 </i>
    <i name="eentropy">      0.00000000 </i>
    <i name="bandstr">   -178.00370456 </i>
    <i name="atom">   3769.08782378 </i>
    <i name="e_fr_energy">    507.03651562 </i>
    <i name="e_wo_entrp">    507.03651562 </i>
    <i name="e_0_energy">    507.03651562 </i>
   </energy>
  </scstep>
  <scstep>
   <time name="dav">    0.40    0.40</time>
   <time name="total">    0.41    0.41</time>
   <energy>
    <i name="e_fr_energy">      7.84634096 </i>
    <i name="e_wo_entrp">      7.84634096 </i>
    <i name="e_0_energy">      7.84634096 </i>
   </energy>
  </scstep>
  <scstep>
   <time name="dav">    0.46    0.47</time>
   <time name="total">    0.46    0.47</time>
   <energy>
    <i name="e_fr_energy">    -60.14936127 </i>
    <i name="e_wo_entrp">    -60.14936127 </i>
    <i name="e_0_energy">    -60.14936127 </i>
   </energy>
  </scstep>
  <scstep>
   <time name="dav">    0.57    0.57</time>
   <time name="total">    0.58    0.58</time>
   <energy>
    <i name="e_fr_energy">    -68.00540871 </i>
    <i name="e_wo_entrp">    -68.00540871 </i>
    <i name="e_0_energy">    -68.00540871 </i>
   </energy>
  </scstep>
  <scstep>
   <time name="dav">    0.50    0.50</time>
   <time name="total">    0.52    0.53</time>
   <energy>
    <i name="e_fr_energy">    -69.13127614 </i>
    <i name="e_wo_entrp">    -69.13127614 </i>
    <i name="e_0_energy">    -69.13127614 </i>
   </energy>
  </scstep>
  <scstep>
   <time name="diag">    0.10    0.11</time>
   <time name="diis">    0.15    0.16</time>
   <time name="orth">    0.01    0.01</time>
   <time name="total">    0.30    0.30</time>
   <energy>
    <i name="e_fr_energy">    -66.65122030 </i>
    <i name="e_wo_entrp">    -66.65122030 </i>
    <i name="e_0_energy">    -66.65122030 </i>
   </energy>
  </scstep>
  <scstep>
   <time name="diag">    0.10    0.10</time>
   <time name="diis">    0.16    0.16</time>
   <time name="orth">    0.01    0.01</time>
   <time name="total">    0.30    0.30</time>
   <energy>
    <i name="e_fr_energy">    -66.18896833 </i>
    <i name="e_wo_entrp">    -66.18896833 </i>
    <i name="e_0_energy">    -66.18896833 </i>
   </energy>
  </scstep>
  <scstep>
   <time name="diag">    0.10    0.10</time>
   <time name="diis">    0.16    0.16</time>
   <time name="orth">    0.01    0.01</time>
   <time name="total">    0.31    0.31</time>
   <energy>
    <i name="e_fr_energy">    -65.99095868 </i>
    <i name="e_wo_entrp">    -65.99095868 </i>
    <i name="e_0_energy">    -65.99095868 </i>
   </energy>
  </scstep>
  <scstep>
   <time name="diag">    0.10    0.10</time>
   <time name="diis">    0.21    0.21</time>
   <time name="orth">    0.01    0.01</time>
   <time name="total">    0.35    0.35</time>
   <energy>
    <i name="e_fr_energy">    -65.98440360 </i>
    <i name="e_wo_entrp">    -65.98440360 </i>
    <i name="e_0_energy">    -65.98440360 </i>
   </energy>
  </scstep>
  <scstep>
   <time name="diag">    0.10    0.10</time>
   <time name="diis">    0.21    0.21</time>
   <time name="orth">    0.01    0.01</time>
   <time name="total">    0.35    0.35</time>
   <energy>
    <i name="e_fr_energy">    -65.98612803 </i>
    <i name="e_wo_entrp">    -65.98612803 </i>
    <i name="e_0_energy">    -65.98612803 </i>
   </energy>
  </scstep>
  <scstep>
   <time name="diag">    0.10    0.10</time>
   <time name="diis">    0.20    0.20</time>
   <time name="orth">    0.01    0.01</time>
   <time name="total">    0.34    0.34</time>
   <energy>
    <i name="e_fr_energy">    -65.98680567 </i>
    <i name="e_wo_entrp">    -65.98680567 </i>
    <i name="e_0_energy">    -65.98680567 </i>
   </energy>
  </scstep>
  <scstep>
   <time name="diag">    0.10    0.10</time>
   <time name="diis">    0.20    0.20</time>
   <time name="orth">    0.01    0.01</time>
   <time name="total">    0.34    0.34</time>
   <energy>
    <i name="e_fr_energy">    -65.98722090 </i>
    <i name="e_wo_entrp">    -65.98722090 </i>
    <i name="e_0_energy">    -65.98722090 </i>
   </energy>
  </scstep>
  <scstep>
   <time name="diag">    0.10    0.10</time>
   <time name="diis">    0.19    0.19</time>
   <time name="orth">    0.01    0.01</time>
   <time name="total">    0.33    0.33</time>
   <energy>
    <i name="e_fr_energy">    -65.98750872 </i>
    <i name="e_wo_entrp">    -65.98750872 </i>
    <i name="e_0_energy">    -65.98750872 </i>
   </energy>
  </scstep>
  <scstep>
   <time name="diag">    0.10    0.10</time>
   <time name="diis">    0.18    0.18</time>
   <time name="orth">    0.01    0.01</time>
   <time name="total">    0.32    0.32</time>
   <energy>
    <i name="e_fr_energy">    -65.98768096 </i>
    <i name="e_wo_entrp">    -65.98768096 </i>
    <i name="e_0_energy">    -65.98768096 </i>
   </energy>
  </scstep>
  <scstep>
   <time name="diag">    0.10    0.10</time>
   <time name="diis">    0.16    0.16</time>
   <time name="orth">    0.01    0.01</time>
   <time name="total">    0.30    0.30</time>
   <energy>
    <i name="e_fr_energy">    -65.98778868 </i>
    <i name="e_wo_entrp">    -65.98778868 </i>
    <i name="e_0_energy">    -65.98778868 </i>
   </energy>
  </scstep>
  <scstep>
   <time name="diag">    0.10    0.10</time>
   <time name="diis">    0.14    0.14</time>
   <time name="orth">    0.01    0.01</time>
   <time name="total">    0.28    0.28</time>
   <energy>
    <i name="e_fr_energy">    -65.98785262 </i>
    <i name="e_wo_entrp">    -65.98785262 </i>
    <i name="e_0_energy">    -65.98785262 </i>
   </energy>
  </scstep>
  <scstep>
   <time name="diag">    0.10    0.10</time>
   <time name="diis">    0.15    0.15</time>
   <time name="orth">    0.01    0.01</time>
   <time name="total">    0.29    0.29</time>
   <energy>
    <i name="e_fr_energy">    -65.98789270 </i>
    <i name="e_wo_entrp">    -65.98789270 </i>
    <i name="e_0_energy">    -65.98789270 </i>
   </energy>
  </scstep>
  <scstep>
   <time name="diag">    0.10    0.10</time>
   <time name="diis">    0.14    0.14</time>
   <time name="orth">    0.01    0.01</time>
   <time name="total">    0.28    0.28</time>
   <energy>
    <i name="e_fr_energy">    -65.98791400 </i>
    <i name="e_wo_entrp">    -65.98791400 </i>
    <i name="e_0_energy">    -65.98791400 </i>
   </energy>
  </scstep>
  <scstep>
   <time name="diag">    0.10    0.10</time>
   <time name="diis">    0.14    0.14</time>
   <time name="orth">    0.01    0.01</time>
   <time name="total">    0.26    0.26</time>
   <energy>
    <i name="alphaZ">     63.95804420 </i>
    <i name="ewald">  -2407.65594150 </i>
    <i name="hartreedc">   -927.65764365 </i>
    <i name="XCdc">    186.52218169 </i>
    <i name="pawpsdc">   8706.23047152 </i>
    <i name="pawaedc">  -8755.67315336 </i>
    <i name="eentropy">      0.00000000 </i>
    <i name="bandstr">   -700.79970806 </i>
    <i name="atom">   3769.08782378 </i>
    <i name="e_fr_energy">    -65.98792538 </i>
    <i name="e_wo_entrp">    -65.98792538 </i>
    <i name="e_0_energy">    -65.98792538 </i>
   </energy>
  </scstep>
  <structure>
   <crystal>
    <varray name="basis" >
     <v>       6.03424465       0.00000000       0.84433977 </v>
     <v>       0.00000000       5.82474312       0.00000000 </v>
     <v>       1.19250585       0.00000000       8.94489645 </v>
    </varray>
    <i name="volume">    308.52973162 </i>
    <varray name="rec_basis" >
     <v>       0.16887100       0.00000000      -0.02251336 </v>
     <v>       0.00000000       0.17168139       0.00000000 </v>
     <v>      -0.01594032       0.00000000       0.11392071 </v>
    </varray>
   </crystal>
   <varray name="positions" >
    <v>       0.26622992       0.18339374       0.53992576 </v>
    <v>       0.26622992       0.81660626       0.03992576 </v>
    <v>       0.20069012       0.50954347       0.61911148 </v>
    <v>       0.20069012       0.49045653       0.11911148 </v>
    <v>       0.99192354       0.07000580       0.46584500 </v>
    <v>       0.99192354       0.92999420       0.96584500 </v>
    <v>       0.34849044       0.94757763       0.68302561 </v>
    <v>       0.34849044       0.05242237       0.18302561 </v>
    <v>       0.51705495       0.21348878       0.34213899 </v>
    <v>       0.51705495       0.78651122       0.84213899 </v>
    <v>       0.66326612       0.77635625       0.13755447 </v>
    <v>       0.66326612       0.22364375       0.63755447 </v>
    <v>       0.90887494       0.26084740       0.72397010 </v>
    <v>       0.90887494       0.73915260       0.22397010 </v>
    <v>       0.95310585       0.79395526       0.60282401 </v>
    <v>       0.95310585       0.20604474       0.10282401 </v>
   </varray>
  </structure>
  <varray name="forces" >
   <v>       0.14595906       0.32536905      -1.03456825 </v>
   <v>       0.14595906      -0.32536905      -1.03456825 </v>
   <v>      -0.10337066      -0.46625177       0.38271740 </v>
   <v>      -0.10337066       0.46625177       0.38271740 </v>
   <v>      -1.72388564       1.52549550      -0.88278110 </v>
   <v>      -1.72388564      -1.52549550      -0.88278110 </v>
   <v>      -0.11039268       1.84515795      -1.51527503 </v>
   <v>      -0.11039268      -1.84515795      -1.51527503 </v>
   <v>       2.55712977       1.55415231       1.43187218 </v>
   <v>       2.55712977      -1.55415231       1.43187218 </v>
   <v>      -2.19558592       0.35816381      -1.31734006 </v>
   <v>      -2.19558592      -0.35816381      -1.31734006 </v>
   <v>       1.47138520       0.02359728       1.59953727 </v>
   <v>       1.47138520      -0.02359728       1.59953727 </v>
   <v>      -0.04123913      -1.55497843       1.33583759 </v>
   <v>      -0.04123913       1.55497843       1.33583759 </v>
  </varray>
  <varray name="stress" >
   <v>      72.01881575       0.00000000      52.81334362 </v>
   <v>       0.00000000      52.27912915       0.00000000 </v>
   <v>      52.81334344       0.00000000      89.47396359 </v>
  </varray>
  <energy>
   <i name="e_fr_energy">    -65.98792538 </i>
   <i name="e_wo_entrp">    -65.98792538 </i>
   <i name="e_0_energy">      0.00000000 </i>
  </energy>
  <time name="totalsc">    7.10    7.24</time>
 </calculation>
 <calculation>
  <scstep>
   <time name="dav">    0.35    0.35</time>
   <time name="total">    0.37    0.38</time>
   <energy>
    <i name="alphaZ">     56.68845348 </i>
    <i name="ewald">  -2356.56043788 </i>
    <i name="hartreedc">   -855.61290551 </i>
    <i name="XCdc">    178.20814165 </i>
    <i name="pawpsdc">   8706.27395248 </i>
    <i name="pawaedc">  -8755.71611153 </i>
    <i name="eentropy">      0.00000000 </i>
    <i name="bandstr">   -811.43913122 </i>
    <i name="atom">   3769.08782378 </i>
    <i name="e_fr_energy">    -69.07021476 </i>
    <i name="e_wo_entrp">    -69.07021476 </i>
    <i name="e_0_energy">    -69.07021476 </i>
   </energy>
  </scstep>
  <scstep>
   <time name="diag">    0.10    0.10</time>
   <time name="diis">    0.18    0.18</time>
   <time name="orth">    0.01    0.01</time>
   <time name="total">    0.32    0.32</time>
   <energy>
    <i name="e_fr_energy">    -69.50636088 </i>
    <i name="e_wo_entrp">    -69.50636088 </i>
    <i name="e_0_energy">    -69.50636088 </i>
   </energy>
  </scstep>
  <scstep>
   <time name="diag">    0.11    0.11</time>
   <time name="diis">    0.21    0.21</time>
   <time name="orth">    0.01    0.01</time>
   <time name="total">    0.36    0.36</time>
   <energy>
    <i name="e_fr_energy">    -69.50443262 </i>
    <i name="e_wo_entrp">    -69.50443262 </i>
    <i name="e_0_energy">    -69.50443262 </i>
   </energy>
  </scstep>
  <scstep>
   <time name="diag">    0.10    0.10</time>
   <time name="diis">    0.18    0.18</time>
   <time name="orth">    0.01    0.01</time>
   <time name="total">    0.32    0.32</time>
   <energy>
    <i name="e_fr_energy">    -69.26401626 </i>
    <i name="e_wo_entrp">    -69.26401626 </i>
    <i name="e_0_energy">    -69.26401626 </i>
   </energy>
  </scstep>
  <scstep>
   <time name="diag">    0.10    0.10</time>
   <time name="diis">    0.21    0.21</time>
   <time name="orth">    0.01    0.01</time>
   <time name="total">    0.35    0.35</time>
   <energy>
    <i name="e_fr_energy">    -69.28724206 </i>
    <i name="e_wo_entrp">    -69.28724206 </i>
    <i name="e_0_energy">    -69.28724206 </i>
   </energy>
  </scstep>
  <scstep>
   <time name="diag">    0.10    0.10</time>
   <time name="diis">    0.20    0.20</time>
   <time name="orth">    0.01    0.01</time>
   <time name="total">    0.34    0.35</time>
   <energy>
    <i name="e_fr_energy">    -69.28964234 </i>
    <i name="e_wo_entrp">    -69.28964234 </i>
    <i name="e_0_energy">    -69.28964234 </i>
   </energy>
  </scstep>
  <scstep>
   <time name="diag">    0.10    0.10</time>
   <time name="diis">    0.22    0.22</time>
   <time name="orth">    0.01    0.01</time>
   <time name="total">    0.36    0.36</time>
   <energy>
    <i name="e_fr_energy">    -69.29157477 </i>
    <i name="e_wo_entrp">    -69.29157477 </i>
    <i name="e_0_energy">    -69.29157477 </i>
   </energy>
  </scstep>
  <scstep>
   <time name="diag">    0.10    0.10</time>
   <time name="diis">    0.22    0.22</time>
   <time name="orth">    0.01    0.01</time>
   <time name="total">    0.36    0.36</time>
   <energy>
    <i name="e_fr_energy">    -69.29449214 </i>
    <i name="e_wo_entrp">    -69.29449214 </i>
    <i name="e_0_energy">    -69.29449214 </i>
   </energy>
  </scstep>
  <scstep>
   <time name="diag">    0.10    0.10</time>
   <time name="diis">    0.23    0.23</time>
   <time name="orth">    0.01    0.01</time>
   <time name="total">    0.37    0.37</time>
   <energy>
    <i name="e_fr_energy">    -69.29587472 </i>
    <i name="e_wo_entrp">    -69.29587472 </i>
    <i name="e_0_energy">    -69.29587472 </i>
   </energy>
  </scstep>
  <scstep>
   <time name="diag">    0.10    0.10</time>
   <time name="diis">    0.21    0.21</time>
   <time name="orth">    0.01    0.01</time>
   <time name="total">    0.35    0.36</time>
   <energy>
    <i name="e_fr_energy">    -69.29664170 </i>
    <i name="e_wo_entrp">    -69.29664170 </i>
    <i name="e_0_energy">    -69.29664170 </i>
   </energy>
  </scstep>
  <scstep>
   <time name="diag">    0.10    0.10</time>
   <time name="diis">    0.21    0.21</time>
   <time name="orth">    0.01    0.01</time>
   <time name="total">    0.35    0.35</time>
   <energy>
    <i name="e_fr_energy">    -69.29713375 </i>
    <i name="e_wo_entrp">    -69.29713375 </i>
    <i name="e_0_energy">    -69.29713375 </i>
   </energy>
  </scstep>
  <scstep>
   <time name="diag">    0.10    0.10</time>
   <time name="diis">    0.20    0.21</time>
   <time name="orth">    0.01    0.01</time>
   <time name="total">    0.35    0.35</time>
   <energy>
    <i name="e_fr_energy">    -69.29741096 </i>
    <i name="e_wo_entrp">    -69.29741096 </i>
    <i name="e_0_energy">    -69.29741096 </i>
   </energy>
  </scstep>
  <scstep>
   <time name="diag">    0.10    0.10</time>
   <time name="diis">    0.20    0.20</time>
   <time name="orth">    0.01    0.01</time>
   <time name="total">    0.34    0.34</time>
   <energy>
    <i name="e_fr_energy">    -69.29760810 </i>
    <i name="e_wo_entrp">    -69.29760810 </i>
    <i name="e_0_energy">    -69.29760810 </i>
   </energy>
  </scstep>
  <scstep>
   <time name="diag">    0.10    0.10</time>
   <time name="diis">    0.19    0.19</time>
   <time name="orth">    0.01    0.01</time>
   <time name="total">    0.33    0.34</time>
   <energy>
    <i name="e_fr_energy">    -69.29772087 </i>
    <i name="e_wo_entrp">    -69.29772087 </i>
    <i name="e_0_energy">    -69.29772087 </i>
   </energy>
  </scstep>
  <scstep>
   <time name="diag">    0.10    0.10</time>
   <time name="diis">    0.19    0.19</time>
   <time name="orth">    0.01    0.01</time>
   <time name="total">    0.33    0.33</time>
   <energy>
    <i name="e_fr_energy">    -69.29779483 </i>
    <i name="e_wo_entrp">    -69.29779483 </i>
    <i name="e_0_energy">    -69.29779483 </i>
   </energy>
  </scstep>
  <scstep>
   <time name="diag">    0.10    0.10</time>
   <time name="diis">    0.17    0.17</time>
   <time name="orth">    0.01    0.01</time>
   <time name="total">    0.32    0.32</time>
   <energy>
    <i name="e_fr_energy">    -69.29783782 </i>
    <i name="e_wo_entrp">    -69.29783782 </i>
    <i name="e_0_energy">    -69.29783782 </i>
   </energy>
  </scstep>
  <scstep>
   <time name="diag">    0.10    0.10</time>
   <time name="diis">    0.17    0.17</time>
   <time name="orth">    0.01    0.01</time>
   <time name="total">    0.31    0.31</time>
   <energy>
    <i name="e_fr_energy">    -69.29786255 </i>
    <i name="e_wo_entrp">    -69.29786255 </i>
    <i name="e_0_energy">    -69.29786255 </i>
   </energy>
  </scstep>
  <scstep>
   <time name="diag">    0.10    0.10</time>
   <time name="diis">    0.15    0.15</time>
   <time name="orth">    0.01    0.01</time>
   <time name="total">    0.27    0.27</time>
   <energy>
    <i name="alphaZ">     56.68845348 </i>
    <i name="ewald">  -2356.56043788 </i>
    <i name="hartreedc">   -923.85104294 </i>
    <i name="XCdc">    182.83408290 </i>
    <i name="pawpsdc">   6792.65120840 </i>
    <i name="pawaedc">  -6842.62338105 </i>
    <i name="eentropy">      0.00000000 </i>
    <i name="bandstr">   -747.52458245 </i>
    <i name="atom">   3769.08782378 </i>
    <i name="e_fr_energy">    -69.29787575 </i>
    <i name="e_wo_entrp">    -69.29787575 </i>
    <i name="e_0_energy">    -69.29787575 </i>
   </energy>
  </scstep>
  <structure>
   <crystal>
    <varray name="basis" >
     <v>       6.31246486       0.00000000       1.07324352 </v>
     <v>       0.00000000       6.00155147       0.00000000 </v>
     <v>       1.51666601       0.00000000       9.44616126 </v>
    </varray>
    <i name="volume">    348.09484122 </i>
    <varray name="rec_basis" >
     <v>       0.16286258       0.00000000      -0.02614905 </v>
     <v>       0.00000000       0.16662358       0.00000000 </v>
     <v>      -0.01850394       0.00000000       0.10883408 </v>
    </varray>
   </crystal>
   <varray name="positions" >
    <v>       0.26854266       0.18608856       0.53412770 </v>
    <v>       0.26854266       0.81391144       0.03412770 </v>
    <v>       0.19943231       0.50568181       0.62129432 </v>
    <v>       0.19943231       0.49431819       0.12129432 </v>
    <v>       0.97883821       0.08264051       0.46231905 </v>
    <v>       0.97883821       0.91735949       0.96231905 </v>
    <v>       0.34923685       0.96285990       0.67478280 </v>
    <v>       0.34923685       0.03714010       0.17478280 </v>
    <v>       0.53633217       0.22636084       0.34804188 </v>
    <v>       0.53633217       0.77363916       0.84804188 </v>
    <v>       0.64680992       0.77932269       0.13200300 </v>
    <v>       0.64680992       0.22067731       0.63200300 </v>
    <v>       0.91912473       0.26104284       0.73162939 </v>
    <v>       0.91912473       0.73895716       0.23162939 </v>
    <v>       0.95131903       0.78107636       0.61019727 </v>
    <v>       0.95131903       0.21892364       0.11019727 </v>
   </varray>
  </structure>
  <varray name="forces" >
   <v>      -0.04641062      -0.05982477      -1.00211743 </v>
   <v>      -0.04641062       0.05982477      -1.00211743 </v>
   <v>       0.06699795      -0.88510804       0.07494049 </v>
   <v>       0.06699795       0.88510804       0.07494049 </v>
   <v>       0.36781890       0.68514590       1.31576173 </v>
   <v>       0.36781890      -0.68514590       1.31576173 </v>
   <v>      -0.40305167       1.14621882      -1.17633773 </v>
   <v>      -0.40305167      -1.14621882      -1.17633773 </v>
   <v>       0.54542348       0.29343598       0.39632182 </v>
   <v>       0.54542348      -0.29343598       0.39632182 </v>
   <v>      -1.20766145       0.19104914      -0.84667671 </v>
   <v>      -1.20766145      -0.19104914      -0.84667671 </v>
   <v>       0.61196513      -0.23324381       0.96256073 </v>
   <v>       0.61196513       0.23324381       0.96256073 </v>
   <v>       0.06491828      -0.13745164       0.27554711 </v>
   <v>       0.06491828       0.13745164       0.27554711 </v>
  </varray>
  <varray name="stress" >
   <v>     -20.24334564       0.00000000      -1.81579487 </v>
   <v>       0.00000000     -27.42279575       0.00000000 </v>
   <v>      -1.81579518       0.00000000     -13.54823734 </v>
  </varray>
  <energy>
   <i name="e_fr_energy">    -69.29787575 </i>
   <i name="e_wo_entrp">    -69.29787575 </i>
   <i name="e_0_energy">      0.00000000 </i>
  </energy>
  <time name="totalsc">    6.46    6.48</time>
 </calculation>
 <calculation>
  <scstep>
   <time name="dav">    0.38    0.38</time>
   <time name="total">    0.41    0.41</time>
   <energy>
    <i name="alphaZ">     55.33564513 </i>
    <i name="ewald">  -2342.67330192 </i>
    <i name="hartreedc">   -911.64581252 </i>
    <i name="XCdc">    181.17167666 </i>
    <i name="pawpsdc">   6792.74983513 </i>
    <i name="pawaedc">  -6842.72188010 </i>
    <i name="eentropy">      0.00000000 </i>
    <i name="bandstr">   -770.75605336 </i>
    <i name="atom">   3769.08782378 </i>
    <i name="e_fr_energy">    -69.45206721 </i>
    <i name="e_wo_entrp">    -69.45206721 </i>
    <i name="e_0_energy">    -69.45206721 </i>
   </energy>
  </scstep>
  <scstep>
   <time name="diag">    0.10    0.10</time>
   <time name="diis">    0.17    0.17</time>
   <time name="orth">    0.01    0.01</time>
   <time name="total">    0.31    0.31</time>
   <energy>
    <i name="e_fr_energy">    -69.41412262 </i>
    <i name="e_wo_entrp">    -69.41412262 </i>
    <i name="e_0_energy">    -69.41412262 </i>
   </energy>
  </scstep>
  <scstep>
   <time name="diag">    0.10    0.10</time>
   <time name="diis">    0.20    0.20</time>
   <time name="orth">    0.01    0.01</time>
   <time name="total">    0.34    0.34</time>
   <energy>
    <i name="e_fr_energy">    -69.39610023 </i>
    <i name="e_wo_entrp">    -69.39610023 </i>
    <i name="e_0_energy">    -69.39610023 </i>
   </energy>
  </scstep>
  <scstep>
   <time name="diag">    0.10    0.10</time>
   <time name="diis">    0.20    0.20</time>
   <time name="orth">    0.01    0.01</time>
   <time name="total">    0.35    0.35</time>
   <energy>
    <i name="e_fr_energy">    -69.39290784 </i>
    <i name="e_wo_entrp">    -69.39290784 </i>
    <i name="e_0_energy">    -69.39290784 </i>
   </energy>
  </scstep>
  <scstep>
   <time name="diag">    0.10    0.10</time>
   <time name="diis">    0.22    0.22</time>
   <time name="orth">    0.01    0.01</time>
   <time name="total">    0.36    0.36</time>
   <energy>
    <i name="e_fr_energy">    -69.39316698 </i>
    <i name="e_wo_entrp">    -69.39316698 </i>
    <i name="e_0_energy">    -69.39316698 </i>
   </energy>
  </scstep>
  <scstep>
   <time name="diag">    0.10    0.10</time>
   <time name="diis">    0.21    0.21</time>
   <time name="orth">    0.01    0.01</time>
   <time name="total">    0.35    0.35</time>
   <energy>
    <i name="e_fr_energy">    -69.39364261 </i>
    <i name="e_wo_entrp">    -69.39364261 </i>
    <i name="e_0_energy">    -69.39364261 </i>
   </energy>
  </scstep>
  <scstep>
   <time name="diag">    0.10    0.10</time>
   <time name="diis">    0.22    0.22</time>
   <time name="orth">    0.01    0.01</time>
   <time name="total">    0.36    0.36</time>
   <energy>
    <i name="e_fr_energy">    -69.39391485 </i>
    <i name="e_wo_entrp">    -69.39391485 </i>
    <i name="e_0_energy">    -69.39391485 </i>
   </energy>
  </scstep>
  <scstep>
   <time name="diag">    0.10    0.10</time>
   <time name="diis">    0.19    0.19</time>
   <time name="orth">    0.01    0.01</time>
   <time name="total">    0.34    0.34</time>
   <energy>
    <i name="e_fr_energy">    -69.39409435 </i>
    <i name="e_wo_entrp">    -69.39409435 </i>
    <i name="e_0_energy">    -69.39409435 </i>
   </energy>
  </scstep>
  <scstep>
   <time name="diag">    0.10    0.10</time>
   <time name="diis">    0.20    0.20</time>
   <time name="orth">    0.01    0.01</time>
   <time name="total">    0.34    0.34</time>
   <energy>
    <i name="e_fr_energy">    -69.39418913 </i>
    <i name="e_wo_entrp">    -69.39418913 </i>
    <i name="e_0_energy">    -69.39418913 </i>
   </energy>
  </scstep>
  <scstep>
   <time name="diag">    0.10    0.10</time>
   <time name="diis">    0.18    0.18</time>
   <time name="orth">    0.01    0.01</time>
   <time name="total">    0.32    0.32</time>
   <energy>
    <i name="e_fr_energy">    -69.39424775 </i>
    <i name="e_wo_entrp">    -69.39424775 </i>
    <i name="e_0_energy">    -69.39424775 </i>
   </energy>
  </scstep>
  <scstep>
   <time name="diag">    0.10    0.10</time>
   <time name="diis">    0.17    0.17</time>
   <time name="orth">    0.01    0.01</time>
   <time name="total">    0.31    0.31</time>
   <energy>
    <i name="e_fr_energy">    -69.39427901 </i>
    <i name="e_wo_entrp">    -69.39427901 </i>
    <i name="e_0_energy">    -69.39427901 </i>
   </energy>
  </scstep>
  <scstep>
   <time name="diag">    0.10    0.10</time>
   <time name="diis">    0.15    0.15</time>
   <time name="orth">    0.01    0.01</time>
   <time name="total">    0.27    0.27</time>
   <energy>
    <i name="alphaZ">     55.33564513 </i>
    <i name="ewald">  -2342.67330192 </i>
    <i name="hartreedc">   -926.06718571 </i>
    <i name="XCdc">    182.18781392 </i>
    <i name="pawpsdc">   6536.34724179 </i>
    <i name="pawaedc">  -6586.40185048 </i>
    <i name="eentropy">      0.00000000 </i>
    <i name="bandstr">   -757.21047878 </i>
    <i name="atom">   3769.08782378 </i>
    <i name="e_fr_energy">    -69.39429227 </i>
    <i name="e_wo_entrp">    -69.39429227 </i>
    <i name="e_0_energy">    -69.39429227 </i>
   </energy>
  </scstep>
  <structure>
   <crystal>
    <varray name="basis" >
     <v>       6.37005151       0.00000000       1.12062253 </v>
     <v>       0.00000000       6.03814766       0.00000000 </v>
     <v>       1.58376141       0.00000000       9.54991417 </v>
    </varray>
    <i name="volume">    356.60482796 </i>
    <varray name="rec_basis" >
     <v>       0.16170222       0.00000000      -0.02681676 </v>
     <v>       0.00000000       0.16561370       0.00000000 </v>
     <v>      -0.01897474       0.00000000       0.10785976 </v>
    </varray>
   </crystal>
   <varray name="positions" >
    <v>       0.26905016       0.18662991       0.53297642 </v>
    <v>       0.26905016       0.81337009       0.03297642 </v>
    <v>       0.19916428       0.50490606       0.62172934 </v>
    <v>       0.19916428       0.49509394       0.12172934 </v>
    <v>       0.97626525       0.08517863       0.46167821 </v>
    <v>       0.97626525       0.91482137       0.96167821 </v>
    <v>       0.34945297       0.96592987       0.67315647 </v>
    <v>       0.34945297       0.03407013       0.17315647 </v>
    <v>       0.54011682       0.22894664       0.34912549 </v>
    <v>       0.54011682       0.77105336       0.84912549 </v>
    <v>       0.64358333       0.77991861       0.13097706 </v>
    <v>       0.64358333       0.22008139       0.63097706 </v>
    <v>       0.92109991       0.26108210       0.73309582 </v>
    <v>       0.92109991       0.73891790       0.23309582 </v>
    <v>       0.95090316       0.77848919       0.61165661 </v>
    <v>       0.95090316       0.22151081       0.11165661 </v>
   </varray>
  </structure>
  <varray name="forces" >
   <v>       0.02477375      -0.01291234      -0.93234485 </v>
   <v>       0.02477375       0.01291234      -0.93234485 </v>
   <v>       0.08228702      -0.95578235       0.00463779 </v>
   <v>       0.08228702       0.95578235       0.00463779 </v>
   <v>       0.63649053       0.56773404       1.53481760 </v>
   <v>       0.63649053      -0.56773404       1.53481760 </v>
   <v>      -0.53283024       1.04629601      -1.18720379 </v>
   <v>      -0.53283024      -1.04629601      -1.18720379 </v>
   <v>       0.28203467       0.14030105       0.32267200 </v>
   <v>       0.28203467      -0.14030105       0.32267200 </v>
   <v>      -1.03812437       0.14985279      -0.76780093 </v>
   <v>      -1.03812437      -0.14985279      -0.76780093 </v>
   <v>       0.48413363      -0.26428013       0.86831827 </v>
   <v>       0.48413363       0.26428013       0.86831827 </v>
   <v>       0.06123500       0.00984542       0.15690390 </v>
   <v>       0.06123500      -0.00984542       0.15690390 </v>
  </varray>
  <varray name="stress" >
   <v>     -32.77449402       0.00000000      -8.96693889 </v>
   <v>       0.00000000     -36.46702705       0.00000000 </v>
   <v>      -8.96693883       0.00000000     -26.69455464 </v>
  </varray>
  <energy>
   <i name="e_fr_energy">    -69.39429227 </i>
   <i name="e_wo_entrp">    -69.39429227 </i>
   <i name="e_0_energy">      0.00000000 </i>
  </energy>
  <time name="totalsc">    4.40    4.42</time>
 </calculation>
 <calculation>
  <scstep>
   <time name="dav">    0.35    0.35</time>
   <time name="total">    0.38    0.38</time>
   <energy>
    <i name="alphaZ">     57.41678591 </i>
    <i name="ewald">  -2346.12084251 </i>
    <i name="hartreedc">   -956.82387713 </i>
    <i name="XCdc">    185.27308377 </i>
    <i name="pawpsdc">   6536.40255692 </i>
    <i name="pawaedc">  -6586.45726993 </i>
    <i name="eentropy">      0.00000000 </i>
    <i name="bandstr">   -728.79244958 </i>
    <i name="atom">   3769.08782378 </i>
    <i name="e_fr_energy">    -70.01418877 </i>
    <i name="e_wo_entrp">    -70.01418877 </i>
    <i name="e_0_energy">    -70.01418877 </i>
   </energy>
  </scstep>
  <scstep>
   <time name="diag">    0.10    0.10</time>
   <time name="diis">    0.17    0.17</time>
   <time name="orth">    0.01    0.01</time>
   <time name="total">    0.31    0.31</time>
   <energy>
    <i name="e_fr_energy">    -70.52950191 </i>
    <i name="e_wo_entrp">    -70.52950191 </i>
    <i name="e_0_energy">    -70.52950191 </i>
   </energy>
  </scstep>
  <scstep>
   <time name="diag">    0.10    0.10</time>
   <time name="diis">    0.21    0.21</time>
   <time name="orth">    0.01    0.01</time>
   <time name="total">    0.35    0.35</time>
   <energy>
    <i name="e_fr_energy">    -70.51806051 </i>
    <i name="e_wo_entrp">    -70.51806051 </i>
    <i name="e_0_energy">    -70.51806051 </i>
   </energy>
  </scstep>
  <scstep>
   <time name="diag">    0.10    0.10</time>
   <time name="diis">    0.21    0.21</time>
   <time name="orth">    0.01    0.01</time>
   <time name="total">    0.35    0.35</time>
   <energy>
    <i name="e_fr_energy">    -70.52416797 </i>
    <i name="e_wo_entrp">    -70.52416797 </i>
    <i name="e_0_energy">    -70.52416797 </i>
   </energy>
  </scstep>
  <scstep>
   <time name="diag">    0.10    0.10</time>
   <time name="diis">    0.23    0.23</time>
   <time name="orth">    0.01    0.01</time>
   <time name="total">    0.37    0.37</time>
   <energy>
    <i name="e_fr_energy">    -70.53023927 </i>
    <i name="e_wo_entrp">    -70.53023927 </i>
    <i name="e_0_energy">    -70.53023927 </i>
   </energy>
  </scstep>
  <scstep>
   <time name="diag">    0.10    0.10</time>
   <time name="diis">    0.22    0.22</time>
   <time name="orth">    0.01    0.01</time>
   <time name="total">    0.36    0.36</time>
   <energy>
    <i name="e_fr_energy">    -70.53398626 </i>
    <i name="e_wo_entrp">    -70.53398626 </i>
    <i name="e_0_energy">    -70.53398626 </i>
   </energy>
  </scstep>
  <scstep>
   <time name="diag">    0.10    0.10</time>
   <time name="diis">    0.22    0.22</time>
   <time name="orth">    0.01    0.01</time>
   <time name="total">    0.36    0.37</time>
   <energy>
    <i name="e_fr_energy">    -70.53570198 </i>
    <i name="e_wo_entrp">    -70.53570198 </i>
    <i name="e_0_energy">    -70.53570198 </i>
   </energy>
  </scstep>
  <scstep>
   <time name="diag">    0.10    0.10</time>
   <time name="diis">    0.22    0.22</time>
   <time name="orth">    0.01    0.01</time>
   <time name="total">    0.36    0.36</time>
   <energy>
    <i name="e_fr_energy">    -70.53674240 </i>
    <i name="e_wo_entrp">    -70.53674240 </i>
    <i name="e_0_energy">    -70.53674240 </i>
   </energy>
  </scstep>
  <scstep>
   <time name="diag">    0.10    0.10</time>
   <time name="diis">    0.21    0.21</time>
   <time name="orth">    0.01    0.01</time>
   <time name="total">    0.35    0.35</time>
   <energy>
    <i name="e_fr_energy">    -70.53723888 </i>
    <i name="e_wo_entrp">    -70.53723888 </i>
    <i name="e_0_energy">    -70.53723888 </i>
   </energy>
  </scstep>
  <scstep>
   <time name="diag">    0.10    0.10</time>
   <time name="diis">    0.21    0.21</time>
   <time name="orth">    0.01    0.01</time>
   <time name="total">    0.35    0.35</time>
   <energy>
    <i name="e_fr_energy">    -70.53755826 </i>
    <i name="e_wo_entrp">    -70.53755826 </i>
    <i name="e_0_energy">    -70.53755826 </i>
   </energy>
  </scstep>
  <scstep>
   <time name="diag">    0.10    0.10</time>
   <time name="diis">    0.20    0.20</time>
   <time name="orth">    0.01    0.01</time>
   <time name="total">    0.34    0.35</time>
   <energy>
    <i name="e_fr_energy">    -70.53772987 </i>
    <i name="e_wo_entrp">    -70.53772987 </i>
    <i name="e_0_energy">    -70.53772987 </i>
   </energy>
  </scstep>
  <scstep>
   <time name="diag">    0.10    0.10</time>
   <time name="diis">    0.19    0.19</time>
   <time name="orth">    0.01    0.01</time>
   <time name="total">    0.33    0.33</time>
   <energy>
    <i name="e_fr_energy">    -70.53783126 </i>
    <i name="e_wo_entrp">    -70.53783126 </i>
    <i name="e_0_energy">    -70.53783126 </i>
   </energy>
  </scstep>
  <scstep>
   <time name="diag">    0.10    0.10</time>
   <time name="diis">    0.18    0.18</time>
   <time name="orth">    0.01    0.01</time>
   <time name="total">    0.32    0.32</time>
   <energy>
    <i name="e_fr_energy">    -70.53788100 </i>
    <i name="e_wo_entrp">    -70.53788100 </i>
    <i name="e_0_energy">    -70.53788100 </i>
   </energy>
  </scstep>
  <scstep>
   <time name="diag">    0.10    0.10</time>
   <time name="diis">    0.16    0.16</time>
   <time name="orth">    0.01    0.01</time>
   <time name="total">    0.31    0.31</time>
   <energy>
    <i name="e_fr_energy">    -70.53791090 </i>
    <i name="e_wo_entrp">    -70.53791090 </i>
    <i name="e_0_energy">    -70.53791090 </i>
   </energy>
  </scstep>
  <scstep>
   <time name="diag">    0.10    0.10</time>
   <time name="diis">    0.14    0.14</time>
   <time name="orth">    0.01    0.01</time>
   <time name="total">    0.26    0.26</time>
   <energy>
    <i name="alphaZ">     57.41678591 </i>
    <i name="ewald">  -2346.12084251 </i>
    <i name="hartreedc">   -937.69199655 </i>
    <i name="XCdc">    183.94305581 </i>
    <i name="pawpsdc">   7327.48667444 </i>
    <i name="pawaedc">  -7377.75199620 </i>
    <i name="eentropy">      0.00000000 </i>
    <i name="bandstr">   -746.90742492 </i>
    <i name="atom">   3769.08782378 </i>
    <i name="e_fr_energy">    -70.53792025 </i>
    <i name="e_wo_entrp">    -70.53792025 </i>
    <i name="e_0_energy">    -70.53792025 </i>
   </energy>
  </scstep>
  <structure>
   <crystal>
    <varray name="basis" >
     <v>       6.29076027       0.00000000       1.12188355 </v>
     <v>       0.00000000       5.92913974       0.00000000 </v>
     <v>       1.57556312       0.00000000       9.49520155 </v>
    </varray>
    <i name="volume">    343.67925511 </i>
    <varray name="rec_basis" >
     <v>       0.16381081       0.00000000      -0.02718155 </v>
     <v>       0.00000000       0.16865853       0.00000000 </v>
     <v>      -0.01935469       0.00000000       0.10852793 </v>
    </varray>
   </crystal>
   <varray name="positions" >
    <v>       0.27111409       0.18715904       0.52654964 </v>
    <v>       0.27111409       0.81284096       0.02654964 </v>
    <v>       0.19950782       0.49604139       0.62218685 </v>
    <v>       0.19950782       0.50395861       0.12218685 </v>
    <v>       0.97635488       0.09288691       0.46865000 </v>
    <v>       0.97635488       0.90711309       0.96865000 </v>
    <v>       0.34699296       0.97824537       0.66532517 </v>
    <v>       0.34699296       0.02175463       0.16532517 </v>
    <v>       0.54640437       0.23315458       0.35185640 </v>
    <v>       0.54640437       0.76684542       0.85185640 </v>
    <v>       0.63240745       0.78186616       0.12661973 </v>
    <v>       0.63240745       0.21813384       0.62661973 </v>
    <v>       0.92616704       0.25892936       0.73904785 </v>
    <v>       0.92616704       0.74107064       0.23904785 </v>
    <v>       0.95068728       0.77552891       0.61415979 </v>
    <v>       0.95068728       0.22447109       0.11415979 </v>
   </varray>
  </structure>
  <varray name="forces" >
   <v>      -0.43876381       0.18012807      -0.91350096 </v>
   <v>      -0.43876381      -0.18012807      -0.91350096 </v>
   <v>       0.05781940       0.20226022       0.17179534 </v>
   <v>       0.05781940      -0.20226022       0.17179534 </v>
   <v>       0.57149517       0.26175349       0.98383852 </v>
   <v>       0.57149517      -0.26175349       0.98383852 </v>
   <v>      -0.62542239      -0.26672881      -0.32814592 </v>
   <v>      -0.62542239       0.26672881      -0.32814592 </v>
   <v>       0.77001028       0.21371790      -0.36892385 </v>
   <v>       0.77001028      -0.21371790      -0.36892385 </v>
   <v>      -0.52805019      -0.24182293      -0.55539687 </v>
   <v>      -0.52805019       0.24182293      -0.55539687 </v>
   <v>       0.14179243      -0.45558654       0.83452563 </v>
   <v>       0.14179243       0.45558654       0.83452563 </v>
   <v>       0.05111911      -0.00106123       0.17580811 </v>
   <v>       0.05111911       0.00106123       0.17580811 </v>
  </varray>
  <varray name="stress" >
   <v>     -14.91564170       0.00000000     -10.90313925 </v>
   <v>       0.00000000       6.41310129       0.00000000 </v>
   <v>     -10.90313912       0.00000000       1.66033795 </v>
  </varray>
  <energy>
   <i name="e_fr_energy">    -70.53792025 </i>
   <i name="e_wo_entrp">    -70.53792025 </i>
   <i name="e_0_energy">      0.00000000 </i>
  </energy>
  <time name="totalsc">    5.46    5.49</time>
 </calculation>
 <calculation>
  <scstep>
   <time name="dav">    0.36    0.36</time>
   <time name="total">    0.39    0.40</time>
   <energy>
    <i name="alphaZ">     58.54589907 </i>
    <i name="ewald">  -2344.40858155 </i>
    <i name="hartreedc">   -956.73499682 </i>
    <i name="XCdc">    185.61674859 </i>
    <i name="pawpsdc">   7327.48473276 </i>
    <i name="pawaedc">  -7377.75019331 </i>
    <i name="eentropy">      0.00000000 </i>
    <i name="bandstr">   -732.43431503 </i>
    <i name="atom">   3769.08782378 </i>
    <i name="e_fr_energy">    -70.59288251 </i>
    <i name="e_wo_entrp">    -70.59288251 </i>
    <i name="e_0_energy">    -70.59288251 </i>
   </energy>
  </scstep>
  <scstep>
   <time name="diag">    0.10    0.10</time>
   <time name="diis">    0.17    0.17</time>
   <time name="orth">    0.01    0.01</time>
   <time name="total">    0.31    0.31</time>
   <energy>
    <i name="e_fr_energy">    -70.70363100 </i>
    <i name="e_wo_entrp">    -70.70363100 </i>
    <i name="e_0_energy">    -70.70363100 </i>
   </energy>
  </scstep>
  <scstep>
   <time name="diag">    0.10    0.10</time>
   <time name="diis">    0.22    0.22</time>
   <time name="orth">    0.01    0.01</time>
   <time name="total">    0.36    0.36</time>
   <energy>
    <i name="e_fr_energy">    -70.69715138 </i>
    <i name="e_wo_entrp">    -70.69715138 </i>
    <i name="e_0_energy">    -70.69715138 </i>
   </energy>
  </scstep>
  <scstep>
   <time name="diag">    0.10    0.10</time>
   <time name="diis">    0.22    0.22</time>
   <time name="orth">    0.01    0.01</time>
   <time name="total">    0.36    0.36</time>
   <energy>
    <i name="e_fr_energy">    -70.69718319 </i>
    <i name="e_wo_entrp">    -70.69718319 </i>
    <i name="e_0_energy">    -70.69718319 </i>
   </energy>
  </scstep>
  <scstep>
   <time name="diag">    0.10    0.10</time>
   <time name="diis">    0.22    0.22</time>
   <time name="orth">    0.01    0.01</time>
   <time name="total">    0.36    0.36</time>
   <energy>
    <i name="e_fr_energy">    -70.69918045 </i>
    <i name="e_wo_entrp">    -70.69918045 </i>
    <i name="e_0_energy">    -70.69918045 </i>
   </energy>
  </scstep>
  <scstep>
   <time name="diag">    0.11    0.11</time>
   <time name="diis">    0.22    0.22</time>
   <time name="orth">    0.01    0.01</time>
   <time name="total">    0.37    0.37</time>
   <energy>
    <i name="e_fr_energy">    -70.70053100 </i>
    <i name="e_wo_entrp">    -70.70053100 </i>
    <i name="e_0_energy">    -70.70053100 </i>
   </energy>
  </scstep>
  <scstep>
   <time name="diag">    0.10    0.10</time>
   <time name="diis">    0.21    0.21</time>
   <time name="orth">    0.01    0.01</time>
   <time name="total">    0.35    0.35</time>
   <energy>
    <i name="e_fr_energy">    -70.70111333 </i>
    <i name="e_wo_entrp">    -70.70111333 </i>
    <i name="e_0_energy">    -70.70111333 </i>
   </energy>
  </scstep>
  <scstep>
   <time name="diag">    0.10    0.10</time>
   <time name="diis">    0.21    0.21</time>
   <time name="orth">    0.01    0.01</time>
   <time name="total">    0.35    0.35</time>
   <energy>
    <i name="e_fr_energy">    -70.70143321 </i>
    <i name="e_wo_entrp">    -70.70143321 </i>
    <i name="e_0_energy">    -70.70143321 </i>
   </energy>
  </scstep>
  <scstep>
   <time name="diag">    0.10    0.10</time>
   <time name="diis">    0.21    0.21</time>
   <time name="orth">    0.01    0.01</time>
   <time name="total">    0.35    0.35</time>
   <energy>
    <i name="e_fr_energy">    -70.70158999 </i>
    <i name="e_wo_entrp">    -70.70158999 </i>
    <i name="e_0_energy">    -70.70158999 </i>
   </energy>
  </scstep>
  <scstep>
   <time name="diag">    0.10    0.10</time>
   <time name="diis">    0.19    0.19</time>
   <time name="orth">    0.01    0.01</time>
   <time name="total">    0.33    0.33</time>
   <energy>
    <i name="e_fr_energy">    -70.70167856 </i>
    <i name="e_wo_entrp">    -70.70167856 </i>
    <i name="e_0_energy">    -70.70167856 </i>
   </energy>
  </scstep>
  <scstep>
   <time name="diag">    0.11    0.11</time>
   <time name="diis">    0.17    0.17</time>
   <time name="orth">    0.01    0.01</time>
   <time name="total">    0.32    0.33</time>
   <energy>
    <i name="e_fr_energy">    -70.70172045 </i>
    <i name="e_wo_entrp">    -70.70172045 </i>
    <i name="e_0_energy">    -70.70172045 </i>
   </energy>
  </scstep>
  <scstep>
   <time name="diag">    0.10    0.10</time>
   <time name="diis">    0.16    0.16</time>
   <time name="orth">    0.01    0.01</time>
   <time name="total">    0.30    0.30</time>
   <energy>
    <i name="e_fr_energy">    -70.70174224 </i>
    <i name="e_wo_entrp">    -70.70174224 </i>
    <i name="e_0_energy">    -70.70174224 </i>
   </energy>
  </scstep>
  <scstep>
   <time name="diag">    0.10    0.10</time>
   <time name="diis">    0.13    0.13</time>
   <time name="orth">    0.01    0.01</time>
   <time name="total">    0.25    0.25</time>
   <energy>
    <i name="alphaZ">     58.54589907 </i>
    <i name="ewald">  -2344.40858155 </i>
    <i name="hartreedc">   -946.83608814 </i>
    <i name="XCdc">    184.92612283 </i>
    <i name="pawpsdc">   7836.86963823 </i>
    <i name="pawaedc">  -7887.27499048 </i>
    <i name="eentropy">      0.00000000 </i>
    <i name="bandstr">   -741.61157279 </i>
    <i name="atom">   3769.08782378 </i>
    <i name="e_fr_energy">    -70.70174904 </i>
    <i name="e_wo_entrp">    -70.70174904 </i>
    <i name="e_0_energy">    -70.70174904 </i>
   </energy>
  </scstep>
  <structure>
   <crystal>
    <varray name="basis" >
     <v>       6.24939484       0.00000000       1.12254142 </v>
     <v>       0.00000000       5.87227141       0.00000000 </v>
     <v>       1.57128616       0.00000000       9.46665853 </v>
    </varray>
    <i name="volume">    337.05107486 </i>
    <varray name="rec_basis" >
     <v>       0.16493283       0.00000000      -0.02737573 </v>
     <v>       0.00000000       0.17029186       0.00000000 </v>
     <v>      -0.01955747       0.00000000       0.10888006 </v>
    </varray>
   </crystal>
   <varray name="positions" >
    <v>       0.27220533       0.18744015       0.52317568 </v>
    <v>       0.27220533       0.81255985       0.02317568 </v>
    <v>       0.19968934       0.49133176       0.62242660 </v>
    <v>       0.19968934       0.50866824       0.12242660 </v>
    <v>       0.97640172       0.09698218       0.47230805 </v>
    <v>       0.97640172       0.90301782       0.97230805 </v>
    <v>       0.34569347       0.98478836       0.66121820 </v>
    <v>       0.34569347       0.01521164       0.16121820 </v>
    <v>       0.54972704       0.23539017       0.35328384 </v>
    <v>       0.54972704       0.76460983       0.85328384 </v>
    <v>       0.62650150       0.78290086       0.12434316 </v>
    <v>       0.62650150       0.21709914       0.62434316 </v>
    <v>       0.92884449       0.25778564       0.74216649 </v>
    <v>       0.92884449       0.74221436       0.24216649 </v>
    <v>       0.95057300       0.77395617       0.61547341 </v>
    <v>       0.95057300       0.22604383       0.11547341 </v>
   </varray>
  </structure>
  <varray name="forces" >
   <v>      -0.79541316       0.39599447      -1.05861279 </v>
   <v>      -0.79541316      -0.39599447      -1.05861279 </v>
   <v>       0.04258336       0.98455962       0.30613153 </v>
   <v>       0.04258336      -0.98455962       0.30613153 </v>
   <v>       0.40168021       0.05227303       0.60272332 </v>
   <v>       0.40168021      -0.05227303       0.60272332 </v>
   <v>      -0.57088322      -1.29315215       0.43526931 </v>
   <v>      -0.57088322       1.29315215       0.43526931 </v>
[...]
       <r>   -8.3230    1.0000 </r>
       <r>   -4.4243    1.0000 </r>
       <r>   -4.1477    1.0000 </r>
       <r>   -2.0349    1.0000 </r>
       <r>   -1.9000    1.0000 </r>
       <r>   -1.7316    1.0000 </r>
       <r>   -1.5325    1.0000 </r>
       <r>   -1.1562    1.0000 </r>
       <r>   -0.9774    1.0000 </r>
       <r>    0.1646    1.0000 </r>
       <r>    0.4788    1.0000 </r>
       <r>    0.7493    1.0000 </r>
       <r>    0.8997    1.0000 </r>
       <r>    1.0880    1.0000 </r>
       <r>    1.2156    1.0000 </r>
       <r>    1.3734    1.0000 </r>
       <r>    1.4678    1.0000 </r>
       <r>    1.9138    1.0000 </r>
       <r>    2.0394    1.0000 </r>
       <r>    2.1703    1.0000 </r>
       <r>    2.4794    1.0000 </r>
       <r>    2.6848    1.0000 </r>
       <r>    2.7861    1.0000 </r>
       <r>    2.9994    1.0000 </r>
       <r>    3.1798    1.0000 </r>
       <r>    6.0675    0.0000 </r>
       <r>    6.1024    0.0000 </r>
       <r>    6.5896    0.0000 </r>
       <r>    6.8572    0.0000 </r>
       <r>    7.2681    0.0000 </r>
       <r>    7.3573    0.0000 </r>
       <r>    7.6863    0.0000 </r>
       <r>    8.0859    0.0000 </r>
       <r>    8.8155    0.0000 </r>
       <r>    9.0431    0.0000 </r>
      </set>
      <set comment="kpoint 16">
       <r>  -40.8163    1.0000 </r>
       <r>  -40.8163    1.0000 </r>
       <r>  -40.5669    1.0000 </r>
       <r>  -40.5668    1.0000 </r>
       <r>  -40.4143    1.0000 </r>
       <r>  -40.4142    1.0000 </r>
       <r>  -11.8522    1.0000 </r>
       <r>  -11.8162    1.0000 </r>
       <r>   -9.0665    1.0000 </r>
       <r>   -9.0089    1.0000 </r>
       <r>   -8.8951    1.0000 </r>
       <r>   -8.7792    1.0000 </r>
       <r>   -8.3908    1.0000 </r>
       <r>   -8.3267    1.0000 </r>
       <r>   -4.5563    1.0000 </r>
       <r>   -4.4614    1.0000 </r>
       <r>   -2.0235    1.0000 </r>
       <r>   -1.9772    1.0000 </r>
       <r>   -1.6507    1.0000 </r>
       <r>   -1.5282    1.0000 </r>
       <r>   -1.2515    1.0000 </r>
       <r>   -1.1332    1.0000 </r>
       <r>    0.1792    1.0000 </r>
       <r>    0.3538    1.0000 </r>
       <r>    0.6036    1.0000 </r>
       <r>    0.9225    1.0000 </r>
       <r>    1.0979    1.0000 </r>
       <r>    1.2643    1.0000 </r>
       <r>    1.4824    1.0000 </r>
       <r>    1.6459    1.0000 </r>
       <r>    1.9322    1.0000 </r>
       <r>    2.0566    1.0000 </r>
       <r>    2.2251    1.0000 </r>
       <r>    2.3603    1.0000 </r>
       <r>    2.8250    1.0000 </r>
       <r>    2.9449    1.0000 </r>
       <r>    3.0191    1.0000 </r>
       <r>    3.2160    1.0000 </r>
       <r>    6.2105    0.0000 </r>
       <r>    6.2652    0.0000 </r>
       <r>    6.8383    0.0000 </r>
       <r>    6.9808    0.0000 </r>
       <r>    7.4467    0.0000 </r>
       <r>    7.6899    0.0000 </r>
       <r>    7.9389    0.0000 </r>
       <r>    8.1004    0.0000 </r>
       <r>    8.8974    0.0000 </r>
       <r>    9.0845    0.0000 </r>
      </set>
     </set>
    </set>
   </array>
  </eigenvalues>
  <separator name="orbital magnetization" >
   <v name="MAGDIPOLOUT">      0.00000000      0.00000000      0.00000000</v>
  </separator>
  <dos>
   <i name="efermi">      3.37645837 </i>
   <total>
    <array>
     <dimension dim="1">gridpoints</dimension>
     <dimension dim="2">spin</dimension>
     <field>energy</field>
     <field>total</field>
     <field>integrated</field>
     <set>
      <set comment="spin 1">
       <r>   -43.3184     0.0000     0.0000 </r>
       <r>   -43.1349     0.0000     0.0000 </r>
       <r>   -42.9514     0.0000     0.0000 </r>
       <r>   -42.7679     0.0000     0.0000 </r>
       <r>   -42.5845     0.0000     0.0000 </r>
       <r>   -42.4010     0.0000     0.0000 </r>
       <r>   -42.2175     0.0000     0.0000 </r>
       <r>   -42.0340     0.0000     0.0000 </r>
       <r>   -41.8506     0.0000     0.0000 </r>
       <r>   -41.6671     0.0000     0.0000 </r>
       <r>   -41.4836     0.0000     0.0000 </r>
       <r>   -41.3001     0.0000     0.0000 </r>
       <r>   -41.1166     0.0000     0.0000 </r>
       <r>   -40.9332     0.0000     0.0000 </r>
       <r>   -40.7497     0.0000     4.0000 </r>
       <r>   -40.5662     0.0000     8.0000 </r>
       <r>   -40.3827     0.0000    12.0000 </r>
       <r>   -40.1993     0.0000    12.0000 </r>
       <r>   -40.0158     0.0000    12.0000 </r>
       <r>   -39.8323     0.0000    12.0000 </r>
       <r>   -39.6488     0.0000    12.0000 </r>
       <r>   -39.4654     0.0000    12.0000 </r>
       <r>   -39.2819     0.0000    12.0000 </r>
       <r>   -39.0984     0.0000    12.0000 </r>
       <r>   -38.9149     0.0000    12.0000 </r>
       <r>   -38.7314     0.0000    12.0000 </r>
       <r>   -38.5480     0.0000    12.0000 </r>
       <r>   -38.3645     0.0000    12.0000 </r>
       <r>   -38.1810     0.0000    12.0000 </r>
       <r>   -37.9975     0.0000    12.0000 </r>
       <r>   -37.8141     0.0000    12.0000 </r>
       <r>   -37.6306     0.0000    12.0000 </r>
       <r>   -37.4471     0.0000    12.0000 </r>
       <r>   -37.2636     0.0000    12.0000 </r>
       <r>   -37.0802     0.0000    12.0000 </r>
       <r>   -36.8967     0.0000    12.0000 </r>
       <r>   -36.7132     0.0000    12.0000 </r>
       <r>   -36.5297     0.0000    12.0000 </r>
       <r>   -36.3463     0.0000    12.0000 </r>
       <r>   -36.1628     0.0000    12.0000 </r>
       <r>   -35.9793     0.0000    12.0000 </r>
       <r>   -35.7958     0.0000    12.0000 </r>
       <r>   -35.6123     0.0000    12.0000 </r>
       <r>   -35.4289     0.0000    12.0000 </r>
       <r>   -35.2454     0.0000    12.0000 </r>
       <r>   -35.0619     0.0000    12.0000 </r>
       <r>   -34.8784     0.0000    12.0000 </r>
       <r>   -34.6950     0.0000    12.0000 </r>
       <r>   -34.5115     0.0000    12.0000 </r>
       <r>   -34.3280     0.0000    12.0000 </r>
       <r>   -34.1445     0.0000    12.0000 </r>
       <r>   -33.9611     0.0000    12.0000 </r>
       <r>   -33.7776     0.0000    12.0000 </r>
       <r>   -33.5941     0.0000    12.0000 </r>
       <r>   -33.4106     0.0000    12.0000 </r>
       <r>   -33.2271     0.0000    12.0000 </r>
       <r>   -33.0437     0.0000    12.0000 </r>
       <r>   -32.8602     0.0000    12.0000 </r>
       <r>   -32.6767     0.0000    12.0000 </r>
       <r>   -32.4932     0.0000    12.0000 </r>
       <r>   -32.3098     0.0000    12.0000 </r>
       <r>   -32.1263     0.0000    12.0000 </r>
       <r>   -31.9428     0.0000    12.0000 </r>
       <r>   -31.7593     0.0000    12.0000 </r>
       <r>   -31.5759     0.0000    12.0000 </r>
       <r>   -31.3924     0.0000    12.0000 </r>
       <r>   -31.2089     0.0000    12.0000 </r>
       <r>   -31.0254     0.0000    12.0000 </r>
       <r>   -30.8420     0.0000    12.0000 </r>
       <r>   -30.6585     0.0000    12.0000 </r>
       <r>   -30.4750     0.0000    12.0000 </r>
       <r>   -30.2915     0.0000    12.0000 </r>
       <r>   -30.1080     0.0000    12.0000 </r>
       <r>   -29.9246     0.0000    12.0000 </r>
       <r>   -29.7411     0.0000    12.0000 </r>
       <r>   -29.5576     0.0000    12.0000 </r>
       <r>   -29.3741     0.0000    12.0000 </r>
       <r>   -29.1907     0.0000    12.0000 </r>
       <r>   -29.0072     0.0000    12.0000 </r>
       <r>   -28.8237     0.0000    12.0000 </r>
       <r>   -28.6402     0.0000    12.0000 </r>
       <r>   -28.4568     0.0000    12.0000 </r>
       <r>   -28.2733     0.0000    12.0000 </r>
       <r>   -28.0898     0.0000    12.0000 </r>
       <r>   -27.9063     0.0000    12.0000 </r>
       <r>   -27.7228     0.0000    12.0000 </r>
       <r>   -27.5394     0.0000    12.0000 </r>
       <r>   -27.3559     0.0000    12.0000 </r>
       <r>   -27.1724     0.0000    12.0000 </r>
       <r>   -26.9889     0.0000    12.0000 </r>
       <r>   -26.8055     0.0000    12.0000 </r>
       <r>   -26.6220     0.0000    12.0000 </r>
       <r>   -26.4385     0.0000    12.0000 </r>
       <r>   -26.2550     0.0000    12.0000 </r>
       <r>   -26.0716     0.0000    12.0000 </r>
       <r>   -25.8881     0.0000    12.0000 </r>
       <r>   -25.7046     0.0000    12.0000 </r>
       <r>   -25.5211     0.0000    12.0000 </r>
       <r>   -25.3376     0.0000    12.0000 </r>
       <r>   -25.1542     0.0000    12.0000 </r>
       <r>   -24.9707     0.0000    12.0000 </r>
       <r>   -24.7872     0.0000    12.0000 </r>
       <r>   -24.6037     0.0000    12.0000 </r>
       <r>   -24.4203     0.0000    12.0000 </r>
       <r>   -24.2368     0.0000    12.0000 </r>
       <r>   -24.0533     0.0000    12.0000 </r>
       <r>   -23.8698     0.0000    12.0000 </r>
       <r>   -23.6864     0.0000    12.0000 </r>
       <r>   -23.5029     0.0000    12.0000 </r>
       <r>   -23.3194     0.0000    12.0000 </r>
       <r>   -23.1359     0.0000    12.0000 </r>
       <r>   -22.9525     0.0000    12.0000 </r>
       <r>   -22.7690     0.0000    12.0000 </r>
       <r>   -22.5855     0.0000    12.0000 </r>
       <r>   -22.4020     0.0000    12.0000 </r>
       <r>   -22.2185     0.0000    12.0000 </r>
       <r>   -22.0351     0.0000    12.0000 </r>
       <r>   -21.8516     0.0000    12.0000 </r>
       <r>   -21.6681     0.0000    12.0000 </r>
       <r>   -21.4846     0.0000    12.0000 </r>
       <r>   -21.3012     0.0000    12.0000 </r>
       <r>   -21.1177     0.0000    12.0000 </r>
       <r>   -20.9342     0.0000    12.0000 </r>
       <r>   -20.7507     0.0000    12.0000 </r>
       <r>   -20.5673     0.0000    12.0000 </r>
       <r>   -20.3838     0.0000    12.0000 </r>
       <r>   -20.2003     0.0000    12.0000 </r>
       <r>   -20.0168     0.0000    12.0000 </r>
       <r>   -19.8333     0.0000    12.0000 </r>
       <r>   -19.6499     0.0000    12.0000 </r>
       <r>   -19.4664     0.0000    12.0000 </r>
       <r>   -19.2829     0.0000    12.0000 </r>
       <r>   -19.0994     0.0000    12.0000 </r>
       <r>   -18.9160     0.0000    12.0000 </r>
       <r>   -18.7325     0.0000    12.0000 </r>
       <r>   -18.5490     0.0000    12.0000 </r>
       <r>   -18.3655     0.0000    12.0000 </r>
       <r>   -18.1821     0.0000    12.0000 </r>
       <r>   -17.9986     0.0000    12.0000 </r>
       <r>   -17.8151     0.0000    12.0000 </r>
       <r>   -17.6316     0.0000    12.0000 </r>
       <r>   -17.4481     0.0000    12.0000 </r>
       <r>   -17.2647     0.0000    12.0000 </r>
       <r>   -17.0812     0.0000    12.0000 </r>
       <r>   -16.8977     0.0000    12.0000 </r>
       <r>   -16.7142     0.0000    12.0000 </r>
       <r>   -16.5308     0.0000    12.0000 </r>
       <r>   -16.3473     0.0000    12.0000 </r>
       <r>   -16.1638     0.0000    12.0000 </r>
       <r>   -15.9803     0.0000    12.0000 </r>
       <r>   -15.7969     0.0000    12.0000 </r>
       <r>   -15.6134     0.0000    12.0000 </r>
       <r>   -15.4299     0.0000    12.0000 </r>
       <r>   -15.2464     0.0000    12.0000 </r>
       <r>   -15.0630     0.0000    12.0000 </r>
       <r>   -14.8795     0.0000    12.0000 </r>
       <r>   -14.6960     0.0000    12.0000 </r>
       <r>   -14.5125     0.0000    12.0000 </r>
       <r>   -14.3290     0.0000    12.0000 </r>
       <r>   -14.1456     0.0000    12.0000 </r>
       <r>   -13.9621     0.0000    12.0000 </r>
       <r>   -13.7786     0.0000    12.0000 </r>
       <r>   -13.5951     0.0000    12.0000 </r>
       <r>   -13.4117     0.0000    12.0000 </r>
       <r>   -13.2282     0.0000    12.0000 </r>
       <r>   -13.0447     0.0000    12.0000 </r>
       <r>   -12.8612     0.0000    12.0000 </r>
       <r>   -12.6778     0.0000    12.0000 </r>
       <r>   -12.4943     0.0000    12.0000 </r>
       <r>   -12.3108     0.0000    12.0000 </r>
       <r>   -12.1273     0.0000    12.0000 </r>
       <r>   -11.9438     5.3563    12.1532 </r>
       <r>   -11.7604    32.2774    15.5282 </r>
       <r>   -11.5769     0.0000    16.0000 </r>
       <r>   -11.3934     0.0000    16.0000 </r>
       <r>   -11.2099     0.0000    16.0000 </r>
       <r>   -11.0265     0.0000    16.0000 </r>
       <r>   -10.8430     0.0000    16.0000 </r>
       <r>   -10.6595     0.0000    16.0000 </r>
       <r>   -10.4760     0.0000    16.0000 </r>
       <r>   -10.2926     0.0000    16.0000 </r>
       <r>   -10.1091     0.0000    16.0000 </r>
       <r>    -9.9256     0.0000    16.0000 </r>
       <r>    -9.7421     0.0000    16.0000 </r>
       <r>    -9.5587     0.0000    16.0000 </r>
       <r>    -9.3752     0.0000    16.0000 </r>
       <r>    -9.1917     5.8764    16.1285 </r>
       <r>    -9.0082    19.8655    19.1509 </r>
       <r>    -8.8247    15.0076    21.1227 </r>
       <r>    -8.6413     0.0000    24.0000 </r>
       <r>    -8.4578    17.7252    25.5822 </r>
       <r>    -8.2743     8.8559    27.5869 </r>
       <r>    -8.0908     0.0000    28.0000 </r>
       <r>    -7.9074     0.0000    28.0000 </r>
       <r>    -7.7239     0.0000    28.0000 </r>
       <r>    -7.5404     0.0000    28.0000 </r>
       <r>    -7.3569     0.0000    28.0000 </r>
       <r>    -7.1735     0.0000    28.0000 </r>
       <r>    -6.9900     0.0000    28.0000 </r>
       <r>    -6.8065     0.0000    28.0000 </r>
       <r>    -6.6230     0.0000    28.0000 </r>
       <r>    -6.4395     0.0000    28.0000 </r>
       <r>    -6.2561     0.0000    28.0000 </r>
       <r>    -6.0726     0.0000    28.0000 </r>
       <r>    -5.8891     0.0000    28.0000 </r>
       <r>    -5.7056     0.0000    28.0000 </r>
       <r>    -5.5222     0.0000    28.0000 </r>
       <r>    -5.3387     0.0000    28.0000 </r>
       <r>    -5.1552     0.0000    28.0000 </r>
       <r>    -4.9717     0.6382    28.0101 </r>
       <r>    -4.7883     2.4202    28.2908 </r>
       <r>    -4.6048     5.3416    29.0805 </r>
       <r>    -4.4213    13.9087    30.4337 </r>
       <r>    -4.2378     3.4914    31.7510 </r>
       <r>    -4.0543     0.0000    32.0000 </r>
       <r>    -3.8709     0.0000    32.0000 </r>
       <r>    -3.6874     0.0000    32.0000 </r>
       <r>    -3.5039     0.0000    32.0000 </r>
       <r>    -3.3204     0.0000    32.0000 </r>
       <r>    -3.1370     0.0000    32.0000 </r>
       <r>    -2.9535     0.0000    32.0000 </r>
       <r>    -2.7700     0.0000    32.0000 </r>
       <r>    -2.5865     0.0000    32.0000 </r>
       <r>    -2.4031     0.0000    32.0000 </r>
       <r>    -2.2196     0.0000    32.0000 </r>
       <r>    -2.0361    10.6228    33.1644 </r>
       <r>    -1.8526     9.3092    35.5170 </r>
       <r>    -1.6692    14.6236    37.7170 </r>
       <r>    -1.4857     3.5619    39.8102 </r>
       <r>    -1.3022     6.0299    40.4515 </r>
       <r>    -1.1187     9.9248    42.3191 </r>
       <r>    -0.9352     0.0000    44.0000 </r>
       <r>    -0.7518     0.0000    44.0000 </r>
       <r>    -0.5683     0.0000    44.0000 </r>
       <r>    -0.3848     0.0000    44.0000 </r>
       <r>    -0.2013     0.0000    44.0000 </r>
       <r>    -0.0179     0.0000    44.0000 </r>
       <r>     0.1656    16.4474    44.1831 </r>
       <r>     0.3491     6.1347    46.2963 </r>
       <r>     0.5326     3.6703    48.0569 </r>
       <r>     0.7160     8.3027    49.7388 </r>
       <r>     0.8995    10.1427    51.6596 </r>
       <r>     1.0830    12.0262    53.0683 </r>
       <r>     1.2665     9.8410    55.1730 </r>
       <r>     1.4500     9.8967    56.4357 </r>
       <r>     1.6334     8.4154    58.4378 </r>
       <r>     1.8169     6.7947    59.8571 </r>
       <r>     2.0004     9.0649    61.7180 </r>
       <r>     2.1839     8.8439    63.6950 </r>
       <r>     2.3673     7.4705    65.8113 </r>
       <r>     2.5508     6.0508    67.9476 </r>
       <r>     2.7343    13.0279    69.6807 </r>
       <r>     2.9178    12.2077    72.1377 </r>
       <r>     3.1012     1.0206    74.0054 </r>
       <r>     3.2847     3.2123    75.9550 </r>
       <r>     3.4682     0.0000    76.0000 </r>
       <r>     3.6517     0.0000    76.0000 </r>
       <r>     3.8352     0.0000    76.0000 </r>
       <r>     4.0186     0.0000    76.0000 </r>
       <r>     4.2021     0.0000    76.0000 </r>
       <r>     4.3856     0.0000    76.0000 </r>
       <r>     4.5691     0.0000    76.0000 </r>
       <r>     4.7525     0.0000    76.0000 </r>
       <r>     4.9360     0.0000    76.0000 </r>
       <r>     5.1195     0.0000    76.0000 </r>
       <r>     5.3030     0.0000    76.0000 </r>
       <r>     5.4864     0.0000    76.0000 </r>
       <r>     5.6699     0.0000    76.0000 </r>
       <r>     5.8534     0.7180    76.0082 </r>
       <r>     6.0369     8.9596    76.8417 </r>
       <r>     6.2203     6.7458    78.8033 </r>
       <r>     6.4038     2.5472    79.8017 </r>
       <r>     6.5873     6.9350    80.2959 </r>
       <r>     6.7708     3.7932    81.7319 </r>
       <r>     6.9543     7.3592    82.8359 </r>
       <r>     7.1377     4.1687    83.9106 </r>
       <r>     7.3212     6.4177    85.1244 </r>
       <r>     7.5047    10.6880    86.7193 </r>
       <r>     7.6882     5.7689    88.0437 </r>
       <r>     7.8716    11.3086    89.3359 </r>
       <r>     8.0551     6.1632    90.5959 </r>
       <r>     8.2386     4.1440    91.8961 </r>
       <r>     8.4221     0.0000    92.0000 </r>
       <r>     8.6055     1.0433    92.0086 </r>
       <r>     8.7890     8.0700    92.7111 </r>
       <r>     8.9725     7.0168    94.3723 </r>
       <r>     9.1560     6.9419    95.9152 </r>
       <r>     9.3395     0.0000    96.0000 </r>
       <r>     9.5229     0.0000    96.0000 </r>
       <r>     9.7064     0.0000    96.0000 </r>
       <r>     9.8899     0.0000    96.0000 </r>
       <r>    10.0734     0.0000    96.0000 </r>
       <r>    10.2568     0.0000    96.0000 </r>
       <r>    10.4403     0.0000    96.0000 </r>
       <r>    10.6238     0.0000    96.0000 </r>
       <r>    10.8073     0.0000    96.0000 </r>
       <r>    10.9907     0.0000    96.0000 </r>
       <r>    11.1742     0.0000    96.0000 </r>
       <r>    11.3577     0.0000    96.0000 </r>
       <r>    11.5412     0.0000    96.0000 </r>
       <r>    11.7246     0.0000    96.0000 </r>
      </set>
     </set>
    </array>
   </total>
  </dos>
 </calculation>
 <structure name="finalpos" >
  <crystal>
   <varray name="basis" >
    <v>       5.88577806       0.00000000       1.47103059 </v>
    <v>       0.00000000       6.01496605       0.00000000 </v>
    <v>       2.43849498       0.00000000       8.19888713 </v>
   </varray>
   <i name="volume">    268.68690473 </i>
   <varray name="rec_basis" >
    <v>       0.18354459       0.00000000      -0.05458943 </v>
    <v>       0.00000000       0.16625198       0.00000000 </v>
    <v>      -0.03293126       0.00000000       0.13176212 </v>
   </varray>
  </crystal>
  <varray name="positions" >
   <v>       0.28266973       0.20019737       0.50663956 </v>
   <v>       0.28266973       0.79980263       0.00663956 </v>
   <v>       0.13148989       0.40502548       0.73197085 </v>
   <v>       0.13148989       0.59497452       0.23197085 </v>
   <v>       0.95550976       0.12964910       0.49928192 </v>
   <v>       0.95550976       0.87035090      -0.00071808 </v>
   <v>       0.40937420       0.90949735       0.54998825 </v>
   <v>       0.40937420       0.09050265       0.04998825 </v>
   <v>       0.60286730       0.37186956       0.32197028 </v>
   <v>       0.60286730       0.62813044       0.82197028 </v>
   <v>       0.57640423       0.63284979       0.13145064 </v>
   <v>       0.57640423       0.36715021       0.63145064 </v>
   <v>       0.83290351       0.09179297       0.81922065 </v>
   <v>       0.83290351       0.90820703       0.31922065 </v>
   <v>       0.05841726       0.71939371       0.55387328 </v>
   <v>       0.05841726       0.28060629       0.05387328 </v>
  </varray>
 </structure>
</modeling>
