unknown system                          
           1
     6.034245    0.000000    0.844340
     0.000000    5.824743    0.000000
     1.192506    0.000000    8.944896
   P    S    Li
   2   8   6
Direct configuration=     1
   0.26622992  0.18339374  0.53992576
   0.26622992  0.81660626  0.03992576
   0.20069012  0.50954347  0.61911148
   0.20069012  0.49045653  0.11911148
   0.99192354  0.07000580  0.46584500
   0.99192354  0.92999420  0.96584500
   0.34849044  0.94757763  0.68302561
   0.34849044  0.05242237  0.18302561
   0.51705495  0.21348878  0.34213899
   0.51705495  0.78651122  0.84213899
   0.66326612  0.77635625  0.13755447
   0.66326612  0.22364375  0.63755447
   0.90887494  0.26084740  0.72397010
   0.90887494  0.73915260  0.22397010
   0.95310585  0.79395526  0.60282401
   0.95310585  0.20604474  0.10282401
unknown system                          
           1
     6.312465    0.000000    1.073244
     0.000000    6.001551    0.000000
     1.516666    0.000000    9.446161
   P    S    Li
   2   8   6
Direct configuration=     2
   0.26854266  0.18608856  0.53412770
   0.26854266  0.81391144  0.03412770
   0.19943231  0.50568181  0.62129432
   0.19943231  0.49431819  0.12129432
   0.97883821  0.08264051  0.46231905
   0.97883821  0.91735949  0.96231905
   0.34923685  0.96285990  0.67478280
   0.34923685  0.03714010  0.17478280
   0.53633217  0.22636084  0.34804188
   0.53633217  0.77363916  0.84804188
   0.64680992  0.77932269  0.13200300
   0.64680992  0.22067731  0.63200300
   0.91912473  0.26104284  0.73162939
   0.91912473  0.73895716  0.23162939
   0.95131903  0.78107636  0.61019727
   0.95131903  0.21892364  0.11019727
unknown system                          
           1
     6.370052    0.000000    1.120623
     0.000000    6.038148    0.000000
     1.583761    0.000000    9.549914
   P    S    Li
   2   8   6
Direct configuration=     3
   0.26905016  0.18662991  0.53297642
   0.26905016  0.81337009  0.03297642
   0.19916428  0.50490606  0.62172934
   0.19916428  0.49509394  0.12172934
   0.97626525  0.08517863  0.46167821
   0.97626525  0.91482137  0.96167821
   0.34945297  0.96592987  0.67315647
   0.34945297  0.03407013  0.17315647
   0.54011682  0.22894664  0.34912549
   0.54011682  0.77105336  0.84912549
   0.64358333  0.77991861  0.13097706
   0.64358333  0.22008139  0.63097706
   0.92109991  0.26108210  0.73309582
   0.92109991  0.73891790  0.23309582
   0.95090316  0.77848919  0.61165661
   0.95090316  0.22151081  0.11165661
unknown system                          
           1
     6.290760    0.000000    1.121884
     0.000000    5.929140    0.000000
     1.575563    0.000000    9.495202
   P    S    Li
   2   8   6
Direct configuration=     4
   0.27111409  0.18715904  0.52654964
   0.27111409  0.81284096  0.02654964
   0.19950782  0.49604139  0.62218685
   0.19950782  0.50395861  0.12218685
   0.97635488  0.09288691  0.46865000
   0.97635488  0.90711309  0.96865000
   0.34699296  0.97824537  0.66532517
   0.34699296  0.02175463  0.16532517
   0.54640437  0.23315458  0.35185640
   0.54640437  0.76684542  0.85185640
   0.63240745  0.78186616  0.12661973
   0.63240745  0.21813384  0.62661973
   0.92616704  0.25892936  0.73904785
   0.92616704  0.74107064  0.23904785
   0.95068728  0.77552891  0.61415979
   0.95068728  0.22447109  0.11415979
unknown system                          
           1
     6.249395    0.000000    1.122541
     0.000000    5.872271    0.000000
     1.571286    0.000000    9.466659
   P    S    Li
   2   8   6
Direct configuration=     5
   0.27220533  0.18744015  0.52317568
   0.27220533  0.81255985  0.02317568
   0.19968934  0.49133176  0.62242660
   0.19968934  0.50866824  0.12242660
   0.97640172  0.09698218  0.47230805
   0.97640172  0.90301782  0.97230805
   0.34569347  0.98478836  0.66121820
   0.34569347  0.01521164  0.16121820
   0.54972704  0.23539017  0.35328384
   0.54972704  0.76460983  0.85328384
   0.62650150  0.78290086  0.12434316
   0.62650150  0.21709914  0.62434316
   0.92884449  0.25778564  0.74216649
   0.92884449  0.74221436  0.24216649
   0.95057300  0.77395617  0.61547341
   0.95057300  0.22604383  0.11547341
unknown system                          
           1
     6.191315    0.000000    1.100831
     0.000000    5.911282    0.000000
     1.511699    0.000000    9.534003
   P    S    Li
   2   8   6
Direct configuration=     6
   0.26929916  0.19074866  0.51419500
   0.26929916  0.80925134  0.01419500
   0.19988260  0.49202794  0.62416382
   0.19988260  0.50797206  0.12416382
   0.97861850  0.10306864  0.47986611
   0.97861850  0.89693136  0.97986611
   0.33930125  0.98437128  0.65807291
   0.33930125  0.01562872  0.15807291
   0.56313827  0.24047516  0.35034089
   0.56313827  0.75952484  0.85034089
   0.61733591  0.78070172  0.11920044
   0.61733591  0.21929828  0.61920044
   0.93153611  0.25201902  0.75044375
   0.93153611  0.74798098  0.25044375
   0.95052409  0.77174176  0.61811251
   0.95052409  0.22825824  0.11811251
unknown system                          
           1
     6.183440    0.000000    1.097887
     0.000000    5.916571    0.000000
     1.503620    0.000000    9.543133
   P    S    Li
   2   8   6
Direct configuration=     7
   0.26888733  0.19119428  0.51298712
   0.26888733  0.80880572  0.01298712
   0.19991179  0.49212171  0.62439741
   0.19991179  0.50787829  0.12439741
   0.97893376  0.10388842  0.48088261
   0.97893376  0.89611158  0.98088261
   0.33842172  0.98431511  0.65764899
   0.33842172  0.01568489  0.15764899
   0.56496847  0.24116006  0.34994746
   0.56496847  0.75883994  0.84994746
   0.61607378  0.78040553  0.11850751
   0.61607378  0.21959447  0.61850751
   0.93191746  0.25124232  0.75155702
   0.93191746  0.74875768  0.25155702
   0.95052157  0.77144350  0.61846731
   0.95052157  0.22855650  0.11846731
unknown system                          
           1
     6.187264    0.000000    1.151951
     0.000000    6.006781    0.000000
     1.577270    0.000000    9.603502
   P    S    Li
   2   8   6
Direct configuration=     8
   0.27366969  0.19855072  0.51127406
   0.27366969  0.80144928  0.01127406
   0.20191065  0.49444396  0.62413402
   0.20191065  0.50555604  0.12413402
   0.97377285  0.10342266  0.48286171
   0.97377285  0.89657734  0.98286171
   0.33069459  0.97902301  0.65556797
   0.33069459  0.02097699  0.15556797
   0.57295987  0.24453192  0.34754742
   0.57295987  0.75546808  0.84754742
   0.61184460  0.77449711  0.11425595
   0.61184460  0.22550289  0.61425595
   0.93398498  0.24464203  0.75824407
   0.93398498  0.75535797  0.25824407
   0.95079867  0.77119301  0.62051022
   0.95079867  0.22880699  0.12051022
unknown system                          
           1
     6.189886    0.000000    1.189021
     0.000000    6.068635    0.000000
     1.627769    0.000000    9.644894
   P    S    Li
   2   8   6
Direct configuration=     9
   0.27696406  0.20351907  0.51008656
   0.27696406  0.79648093  0.01008656
   0.20328428  0.49601235  0.62394647
   0.20328428  0.50398765  0.12394647
   0.97021677  0.10310810  0.48423219
   0.97021677  0.89689190  0.98423219
   0.32540701  0.97544886  0.65417858
   0.32540701  0.02455114  0.15417858
   0.57846144  0.24680918  0.34587862
   0.57846144  0.75319082  0.84587862
   0.60897331  0.77050672  0.11137202
   0.60897331  0.22949328  0.61137202
   0.93535508  0.24018437  0.76279809
   0.93535508  0.75981563  0.26279809
   0.95097394  0.77102383  0.62190288
   0.95097394  0.22897617  0.12190288
unknown system                          
           1
     6.089475    0.000000    1.259862
     0.000000    6.082629    0.000000
     1.721475    0.000000    9.594246
   P    S    Li
   2   8   6
Direct configuration=    10
   0.27759282  0.20629657  0.51259802
   0.27759282  0.79370343  0.01259802
   0.20665563  0.49469576  0.62233701
   0.20665563  0.50530424  0.12233701
   0.96967300  0.10283543  0.48537987
   0.96967300  0.89716457  0.98537987
   0.31751664  0.97606204  0.64891583
   0.31751664  0.02393796  0.14891583
   0.58270195  0.25024568  0.34455795
   0.58270195  0.74975432  0.84455795
   0.60446865  0.76290495  0.10728073
   0.60446865  0.23709505  0.60728073
   0.93894921  0.23146885  0.76936184
   0.93894921  0.76853115  0.26936184
   0.95207799  0.77311355  0.62396418
   0.95207799  0.22688645  0.12396418
unknown system                          
           1
     6.048792    0.000000    1.288563
     0.000000    6.088299    0.000000
     1.759441    0.000000    9.573725
   P    S    Li
   2   8   6
Direct configuration=    11
   0.27783465  0.20741932  0.51362076
   0.27783465  0.79258068  0.01362076
   0.20805935  0.49416355  0.62166642
   0.20805935  0.50583645  0.12166642
   0.96944028  0.10272521  0.48585058
   0.96944028  0.89727479  0.98585058
   0.31429547  0.97630991  0.64679911
   0.31429547  0.02369009  0.14679911
   0.58446257  0.25163482  0.34400176
   0.58446257  0.74836518  0.84400176
   0.60263738  0.75983209  0.10562863
   0.60263738  0.24016791  0.60562863
   0.94038688  0.22794578  0.77202693
   0.94038688  0.77205422  0.27202693
   0.95251929  0.77395827  0.62480123
   0.95251929  0.22604173  0.12480123
unknown system                          
           1
     5.960406    0.000000    1.373505
     0.000000    6.123333    0.000000
     1.856304    0.000000    9.629435
   P    S    Li
   2   8   6
Direct configuration=    12
   0.27111979  0.20519951  0.51212807
   0.27111979  0.79480049  0.01212807
   0.20965717  0.49526075  0.62260922
   0.20965717  0.50473925  0.12260922
   0.97281600  0.10358640  0.48631822
   0.97281600  0.89641360  0.98631822
   0.30947262  0.97506265  0.64455994
   0.30947262  0.02493735  0.14455994
   0.58928297  0.25554735  0.34088148
   0.58928297  0.74445265  0.84088148
   0.59890408  0.75047551  0.10261667
   0.59890408  0.24952449  0.60261667
   0.94399756  0.21755431  0.77852411
   0.94399756  0.78244569  0.27852411
   0.95438569  0.77825201  0.62675773
   0.95438569  0.22174799  0.12675773
unknown system                          
           1
     5.924907    0.000000    1.407620
     0.000000    6.137404    0.000000
     1.895208    0.000000    9.651811
   P    S    Li
   2   8   6
Direct configuration=    13
   0.26838231  0.20431305  0.51156159
   0.26838231  0.79568695  0.01156159
   0.21030500  0.49569890  0.62297916
   0.21030500  0.50430110  0.12297916
   0.97419392  0.10393031  0.48648984
   0.97419392  0.89606969  0.98648984
   0.30751355  0.97456457  0.64368603
   0.30751355  0.02543543  0.14368603
   0.59127358  0.25710978  0.33961065
   0.59127358  0.74289022  0.83961065
   0.59739536  0.74673904  0.10142850
   0.59739536  0.25326096  0.60142850
   0.94543497  0.21340457  0.78110756
   0.94543497  0.78659543  0.28110756
   0.95513721  0.77996668  0.62753210
   0.95513721  0.22003332  0.12753210
unknown system                          
           1
     5.920815    0.000000    1.531935
     0.000000    6.143486    0.000000
     2.054908    0.000000    9.826504
   P    S    Li
   2   8   6
Direct configuration=    14
   0.26684788  0.20562873  0.50886517
   0.26684788  0.79437127  0.00886517
   0.20977067  0.49209347  0.62467170
   0.20977067  0.50790653  0.12467170
   0.97103009  0.10366314  0.48551048
   0.97103009  0.89633686  0.98551048
   0.30640614  0.97312490  0.64323239
   0.30640614  0.02687510  0.14323239
   0.59480909  0.26098843  0.33597242
   0.59480909  0.73901157  0.83597242
   0.59319394  0.73520002  0.09924707
   0.59319394  0.26479998  0.59924707
   0.94903231  0.20215893  0.78794757
   0.94903231  0.79784107  0.28794757
   0.95854578  0.78571789  0.62894864
   0.95854578  0.21428211  0.12894864
unknown system                          
           1
     5.918632    0.000000    1.598279
     0.000000    6.146732    0.000000
     2.140136    0.000000    9.919734
   P    S    Li
   2   8   6
Direct configuration=    15
   0.26605624  0.20633018  0.50745784
   0.26605624  0.79366982  0.00745784
   0.20946411  0.49017124  0.62556585
   0.20946411  0.50982876  0.12556585
   0.96934405  0.10352070  0.48501809
   0.96934405  0.89647930  0.98501809
   0.30581729  0.97235734  0.64300174
   0.30581729  0.02764266  0.14300174
   0.59674874  0.26305632  0.33403319
   0.59674874  0.73694368  0.83403319
   0.59096530  0.72904801  0.09812984
   0.59096530  0.27095199  0.59812984
   0.95088216  0.19616333  0.79151964
   0.95088216  0.80383667  0.29151964
   0.96035800  0.78878413  0.62966924
   0.96035800  0.21121587  0.12966924
unknown system                          
           1
     5.886278    0.000000    1.660105
     0.000000    6.078016    0.000000
     2.194730    0.000000   10.057966
   P    S    Li
   2   8   6
Direct configuration=    16
   0.26806058  0.20427711  0.50754574
   0.26806058  0.79572289  0.00754574
   0.20438588  0.48229557  0.62779102
   0.20438588  0.51770443  0.12779102
   0.96545316  0.10356110  0.48436668
   0.96545316  0.89643890  0.98436668
   0.30729667  0.97673131  0.63905404
   0.30729667  0.02326869  0.13905404
   0.59740318  0.26720022  0.33059533
   0.59740318  0.73279978  0.83059533
   0.58538905  0.71553331  0.09682683
   0.58538905  0.28446669  0.59682683
   0.95428976  0.18427264  0.79886354
   0.95428976  0.81572736  0.29886354
   0.96735760  0.79572554  0.62935226
   0.96735760  0.20427446  0.12935226
unknown system                          
           1
     5.876920    0.000000    1.677987
     0.000000    6.058141    0.000000
     2.210521    0.000000   10.097948
   P    S    Li
   2   8   6
Direct configuration=    17
   0.26864502  0.20367656  0.50756647
   0.26864502  0.79632344  0.00756647
   0.20290200  0.47999184  0.62843730
   0.20290200  0.52000816  0.12843730
   0.96431924  0.10357291  0.48418917
   0.96431924  0.89642709  0.98418917
   0.30773318  0.97801075  0.63792385
   0.30773318  0.02198925  0.13792385
   0.59759844  0.26841237  0.32961247
   0.59759845  0.73158763  0.82961247
   0.58376445  0.71158009  0.09646697
   0.58376445  0.28841991  0.59646697
   0.95527417  0.18079447  0.80095265
   0.95527417  0.81920553  0.30095265
   0.96939938  0.79775599  0.62924655
   0.96939938  0.20224401  0.12924655
unknown system                          
           1
     5.802049    0.000000    1.664410
     0.000000    6.061343    0.000000
     2.136242    0.000000   10.177764
   P    S    Li
   2   8   6
Direct configuration=    18
   0.26939480  0.20008897  0.50466395
   0.26939480  0.79991103  0.00466395
   0.19140490  0.47632337  0.63302786
   0.19140490  0.52367663  0.13302786
   0.96424541  0.10462544  0.48419473
   0.96424541  0.89537456  0.98419473
   0.31510251  0.97808098  0.63344961
   0.31510251  0.02191902  0.13344961
   0.59435214  0.27243552  0.32745854
   0.59435214  0.72756448  0.82745854
   0.57967705  0.69768140  0.09608808
   0.57967705  0.30231860  0.59608808
   0.95742527  0.17048071  0.80826678
   0.95742527  0.82951929  0.30826678
   0.97803380  0.80386178  0.62724587
   0.97803380  0.19613822  0.12724587
unknown system                          
           1
     5.760190    0.000000    1.656820
     0.000000    6.063133    0.000000
     2.094713    0.000000   10.222388
   P    S    Li
   2   8   6
Direct configuration=    19
   0.26979244  0.19808423  0.50305798
   0.26979244  0.80191577  0.00305798
   0.18493488  0.47427344  0.63557259
   0.18493488  0.52572656  0.13557259
   0.96420364  0.10521359  0.48419783
   0.96420364  0.89478641  0.98419783
   0.31923533  0.97812022  0.63097114
   0.31923533  0.02187978  0.13097114
   0.59249307  0.27468365  0.32626852
   0.59249307  0.72531635  0.82626852
   0.57735809  0.68991482  0.09588038
   0.57735809  0.31008518  0.59588038
   0.95871210  0.16471738  0.81231184
   0.95871210  0.83528262  0.31231184
   0.98290634  0.80727369  0.62613514
   0.98290634  0.19272631  0.12613514
unknown system                          
           1
     5.733858    0.000000    1.650443
     0.000000    6.090780    0.000000
     2.074129    0.000000   10.221319
   P    S    Li
   2   8   6
Direct configuration=    20
   0.27110051  0.20125880  0.50162843
   0.27110051  0.79874120  0.00162843
   0.17295976  0.46920869  0.63888885
   0.17295976  0.53079131  0.13888885
   0.96044360  0.10510943  0.48395821
   0.96044360  0.89489057  0.98395821
   0.33106397  0.97534682  0.62702028
   0.33106397  0.02465318  0.12702028
   0.58810080  0.27824855  0.32514742
   0.58810080  0.72175145  0.82514742
   0.57562624  0.67800884  0.09597359
   0.57562624  0.32199116  0.59597359
   0.96119391  0.15732172  0.81756924
   0.96119391  0.84267828  0.31756924
   0.98914709  0.81079205  0.62420941
   0.98914709  0.18920795  0.12420941
unknown system                          
           1
     5.712310    0.000000    1.645225
     0.000000    6.113404    0.000000
     2.057284    0.000000   10.220444
   P    S    Li
   2   8   6
Direct configuration=    21
   0.27217150  0.20384487  0.50045904
   0.27217150  0.79615513  0.00045904
   0.16312490  0.46508285  0.64160250
   0.16312490  0.53491715  0.14160250
   0.95735163  0.10502458  0.48376259
   0.95735163  0.89497542  0.98376259
   0.34077645  0.97308754  0.62378758
   0.34077645  0.02691246  0.12378758
   0.58448633  0.28115257  0.32423091
   0.58448633  0.71884743  0.82423091
   0.57420272  0.66831001  0.09605001
   0.57420272  0.33168999  0.59605001
   0.96325051  0.15129706  0.82186911
   0.96325051  0.84870294  0.32186911
   0.99427185  0.81365817  0.62263368
   0.99427185  0.18634183  0.12263368
unknown system                          
           1
     5.696146    0.000000    1.613470
     0.000000    6.116206    0.000000
     2.029714    0.000000   10.098691
   P    S    Li
   2   8   6
Direct configuration=    22
   0.26840759  0.20459027  0.50357983
   0.26840759  0.79540973  0.00357983
   0.15175592  0.45962608  0.64434245
   0.15175592  0.54037392  0.14434245
   0.95300586  0.10608481  0.48511870
   0.95300586  0.89391519  0.98511870
   0.35340935  0.97410800  0.61823076
   0.35340935  0.02589200  0.11823076
   0.58338425  0.28631135  0.32160667
   0.58338425  0.71368865  0.82160667
   0.57503922  0.65914656  0.09665311
   0.57503922  0.34085344  0.59665311
   0.96696750  0.14747597  0.82361984
   0.96696750  0.85252403  0.32361984
   0.99766620  0.81453031  0.62124407
   0.99766620  0.18546969  0.12124407
unknown system                          
           1
     5.688307    0.000000    1.598072
     0.000000    6.117565    0.000000
     2.016345    0.000000   10.039651
   P    S    Li
   2   8   6
Direct configuration=    23
   0.26657995  0.20495156  0.50510605
   0.26657995  0.79504844  0.00510605
   0.14623364  0.45698122  0.64567126
   0.14623364  0.54301878  0.14567126
   0.95089506  0.10659870  0.48577815
   0.95089506  0.89340130  0.98577815
   0.35954485  0.97460260  0.61552141
   0.35954485  0.02539740  0.11552141
   0.58284813  0.28881177  0.32031738
   0.58284813  0.71118823  0.82031738
   0.57544576  0.65470509  0.09695022
   0.57544576  0.34529491  0.59695022
   0.96877370  0.14562391  0.82448410
   0.96877370  0.85437609  0.32448410
   0.99931478  0.81495303  0.62056686
   0.99931478  0.18504697  0.12056686
unknown system                          
           1
     5.665074    0.000000    1.580628
     0.000000    6.146891    0.000000
     2.023160    0.000000    9.876488
   P    S    Li
   2   8   6
Direct configuration=    24
   0.26612561  0.20307652  0.50370259
   0.26612561  0.79692348  0.00370259
   0.13387921  0.45576695  0.65105288
   0.13387921  0.54423305  0.15105288
   0.94619193  0.10916186  0.48904809
   0.94619193  0.89083814  0.98904809
   0.37175180  0.97581755  0.61039130
   0.37175180  0.02418245  0.11039130
   0.57893677  0.29577942  0.31909795
   0.57893677  0.70422058  0.81909795
   0.57826953  0.64609143  0.09816947
   0.57826953  0.35390857  0.59816947
   0.97362277  0.14500755  0.82290530
   0.97362277  0.85499245  0.32290530
   0.00085827  0.81361578  0.62002785
   0.00085827  0.18638422  0.12002785
unknown system                          
           1
     5.644713    0.000000    1.565341
     0.000000    6.172592    0.000000
     2.029134    0.000000    9.733496
   P    S    Li
   2   8   6
Direct configuration=    25
   0.26573524  0.20144112  0.50245037
   0.26573524  0.79855888  0.00245037
   0.12297672  0.45470787  0.65584004
   0.12297672  0.54529213  0.15584004
   0.94203346  0.11139744  0.49195973
   0.94203346  0.88860256  0.99195973
   0.38252291  0.97687721  0.60582831
   0.38252291  0.02312279  0.10582831
   0.57550438  0.30185656  0.31800629
   0.57550438  0.69814344  0.81800629
   0.58074526  0.63857865  0.09925985
   0.58074526  0.36142135  0.59925985
   0.97789844  0.14446996  0.82150216
   0.97789844  0.85553004  0.32150216
   0.00221949  0.81244944  0.61954869
   0.00221949  0.18755056  0.11954869
unknown system                          
           1
     5.654477    0.000000    1.560549
     0.000000    6.195247    0.000000
     2.062021    0.000000    9.597766
   P    S    Li
   2   8   6
Direct configuration=    26
   0.26636257  0.20654336  0.50179782
   0.26636257  0.79345664  0.00179782
   0.11664273  0.45143094  0.66041380
   0.11664273  0.54856906  0.16041380
   0.93531093  0.11062975  0.49521933
   0.93531093  0.88937025  0.99521933
   0.38843774  0.97682596  0.60293571
   0.38843774  0.02317404  0.10293571
   0.57448212  0.31194105  0.31459989
   0.57448212  0.68805895  0.81459989
   0.58278988  0.63031042  0.10142014
   0.58278988  0.36968958  0.60142014
   0.98268875  0.14598929  0.81770952
   0.98268875  0.85401071  0.31770952
   0.00292116  0.80915423  0.62029922
   0.00292116  0.19084577  0.12029922
unknown system                          
           1
     5.662615    0.000000    1.556556
     0.000000    6.214128    0.000000
     2.089431    0.000000    9.484641
   P    S    Li
   2   8   6
Direct configuration=    27
   0.26689072  0.21078031  0.50124565
   0.26689072  0.78921969  0.00124565
   0.11132985  0.44870975  0.66428260
   0.11132985  0.55129025  0.16428260
   0.92968766  0.10999226  0.49797501
   0.92968766  0.89000774  0.99797501
   0.39338564  0.97678340  0.60049026
   0.39338564  0.02321660  0.10049026
   0.57366495  0.32031533  0.31171456
   0.57366495  0.67968467  0.81171456
   0.58446953  0.62344439  0.10325095
   0.58446953  0.37655561  0.60325095
   0.98671005  0.14725095  0.81450113
   0.98671005  0.85274905  0.31450113
   0.00349749  0.80641785  0.62093528
   0.00349749  0.19358215  0.12093528
unknown system                          
           1
     5.638892    0.000000    1.529393
     0.000000    6.224996    0.000000
     2.071850    0.000000    9.351240
   P    S    Li
   2   8   6
Direct configuration=    28
   0.26536005  0.21260189  0.50064547
   0.26536005  0.78739811  0.00064547
   0.10961740  0.44839520  0.66808828
   0.10961740  0.55160480  0.16808828
   0.92796993  0.10835809  0.50055260
   0.92796993  0.89164191  0.00055260
   0.39312960  0.97906285  0.59774862
   0.39312960  0.02093715  0.09774862
   0.57374997  0.33173738  0.30766851
   0.57374997  0.66826262  0.80766851
   0.58542684  0.61615921  0.10598449
   0.58542684  0.38384079  0.60598449
   0.99000929  0.14692983  0.81143234
   0.99000929  0.85307017  0.31143234
   0.00437283  0.80303664  0.62227512
   0.00437283  0.19696336  0.12227512
unknown system                          
           1
     5.623241    0.000000    1.511473
     0.000000    6.232165    0.000000
     2.060251    0.000000    9.263234
   P    S    Li
   2   8   6
Direct configuration=    29
   0.26434777  0.21380150  0.50024135
   0.26434777  0.78619850  0.00024135
   0.10847823  0.44818806  0.67063301
   0.10847823  0.55181194  0.17063301
   0.92682909  0.10728190  0.50227528
   0.92682909  0.89271810  0.00227528
   0.39296421  0.98056400  0.59591306
   0.39296421  0.01943600  0.09591306
   0.57381227  0.33925947  0.30496036
   0.57381227  0.66074053  0.80496036
   0.58605642  0.61136149  0.10781572
   0.58605642  0.38863851  0.60781572
   0.99219767  0.14671835  0.80938333
   0.99219767  0.85328165  0.30938333
   0.00495022  0.80080992  0.62317332
   0.00495022  0.19919008  0.12317332
unknown system                          
           1
     5.624268    0.000000    1.512023
     0.000000    6.260256    0.000000
     2.083477    0.000000    9.181594
   P    S    Li
   2   8   6
Direct configuration=    30
   0.26557810  0.21670902  0.49716184
   0.26557810  0.78329098 -0.00283816
   0.11263045  0.45137304  0.67127947
   0.11263045  0.54862696  0.17127947
   0.92725010  0.10594903  0.50276501
   0.92725010  0.89405097  0.00276501
   0.39026096  0.98185705  0.59441250
   0.39026096  0.01814295  0.09441250
   0.57097252  0.34538115  0.30514640
   0.57097252  0.65461885  0.80514640
   0.58566448  0.60771755  0.10978506
   0.58566448  0.39228245  0.60978506
   0.99192453  0.14322464  0.80916404
   0.99192453  0.85677536  0.30916404
   0.00535476  0.79836972  0.62468109
   0.00535476  0.20163028  0.12468109
unknown system                          
           1
     5.624825    0.000000    1.512321
     0.000000    6.275500    0.000000
     2.096081    0.000000    9.137292
   P    S    Li
   2   8   6
Direct configuration=    31
   0.26625884  0.21827971  0.49547368
   0.26625884  0.78172029 -0.00452632
   0.11488050  0.45309363  0.67163378
   0.11488050  0.54690637  0.17163378
   0.92747642  0.10522898  0.50303347
   0.92747642  0.89477102  0.00303347
   0.38880072  0.98255558  0.59358997
   0.38880072  0.01744442  0.09358997
   0.56943099  0.34868820  0.30524843
   0.56943099  0.65131180  0.80524843
   0.58544338  0.60574902  0.11086463
   0.58544338  0.39425098  0.61086463
   0.99177727  0.14133727  0.80904384
   0.99177727  0.85866273  0.30904384
   0.00556777  0.79705148  0.62550762
   0.00556777  0.20294852  0.12550762
unknown system                          
           1
     5.662703    0.000000    1.514424
     0.000000    6.288112    0.000000
     2.120502    0.000000    9.111663
   P    S    Li
   2   8   6
Direct configuration=    32
   0.26372532  0.22076854  0.49650218
   0.26372532  0.77923146 -0.00349782
   0.12139494  0.45379043  0.67039099
   0.12139494  0.54620957  0.17039099
   0.92734939  0.10644660  0.50318122
   0.92734939  0.89355340  0.00318122
   0.38672883  0.98382590  0.59184077
   0.38672883  0.01617410  0.09184077
   0.57084246  0.35189774  0.30454312
   0.57084246  0.64810226  0.80454312
   0.58428837  0.60527730  0.11167146
   0.58428838  0.39472270  0.61167146
   0.98989487  0.13841706  0.80939544
   0.98989487  0.86158294  0.30939544
   0.00541171  0.79564279  0.62687025
   0.00541171  0.20435721  0.12687025
unknown system                          
           1
     5.696281    0.000000    1.516288
     0.000000    6.299292    0.000000
     2.142151    0.000000    9.088944
   P    S    Li
   2   8   6
Direct configuration=    33
   0.26149002  0.22297038  0.49741523
   0.26149002  0.77702962 -0.00258477
   0.12713543  0.45440689  0.66929057
   0.12713543  0.54559311  0.16929057
   0.92723683  0.10752381  0.50331258
   0.92723683  0.89247619  0.00331258
   0.38491397  0.98494973  0.59028260
   0.38491397  0.01505027  0.09028260
   0.57208846  0.35473720  0.30391670
   0.57208846  0.64526280  0.80391670
   0.58326762  0.60485997  0.11238842
   0.58326762  0.39514003  0.61238842
   0.98823614  0.13583357  0.80970673
   0.98823614  0.86416643  0.30970673
   0.00526742  0.79439653  0.62808260
   0.00526742  0.20560347  0.12808260
unknown system                          
           1
     5.726546    0.000000    1.527879
     0.000000    6.303710    0.000000
     2.173476    0.000000    9.083498
   P    S    Li
   2   8   6
Direct configuration=    34
   0.26210260  0.22501922  0.49578137
   0.26210260  0.77498078 -0.00421863
   0.13298868  0.45566581  0.66976399
   0.13298868  0.54433419  0.16976399
   0.92713626  0.11156148  0.50408742
   0.92713626  0.88843852  0.00408742
   0.38329982  0.98580359  0.58822858
   0.38329982  0.01419641  0.08822858
   0.57261833  0.35577842  0.30453329
   0.57261833  0.64422158  0.80453329
   0.58164880  0.60604934  0.11251446
   0.58164880  0.39395066  0.61251446
   0.98538081  0.13374380  0.80988667
   0.98538081  0.86625620  0.30988667
   0.00446058  0.79331111  0.62959964
   0.00446058  0.20668889  0.12959964
unknown system                          
           1
     5.765305    0.000000    1.542722
     0.000000    6.309368    0.000000
     2.213593    0.000000    9.076524
   P    S    Li
   2   8   6
Direct configuration=    35
   0.26289582  0.22764124  0.49368524
   0.26289582  0.77235876 -0.00631476
   0.14044252  0.45727691  0.67036818
   0.14044252  0.54272309  0.17036818
   0.92700209  0.11672872  0.50508139
   0.92700209  0.88327128  0.00508139
   0.38125928  0.98689631  0.58559467
   0.38125928  0.01310369  0.08559467
   0.57328863  0.35711091  0.30532392
   0.57328863  0.64288909  0.80532392
   0.57958531  0.60757144  0.11267700
   0.57958531  0.39242856  0.61267700
   0.98174147  0.13106940  0.81011899
   0.98174147  0.86893060  0.31011899
   0.00342077  0.79192205  0.63154604
   0.00342077  0.20807795  0.13154604
unknown system                          
           1
     5.764789    0.000000    1.544732
     0.000000    6.282647    0.000000
     2.218839    0.000000    9.068007
   P    S    Li
   2   8   6
Direct configuration=    36
   0.26323454  0.22889618  0.49436123
   0.26323454  0.77110382 -0.00563877
   0.14236516  0.45721305  0.67251521
   0.14236516  0.54278695  0.17251521
   0.92728613  0.12195291  0.50570484
   0.92728613  0.87804709  0.00570484
   0.38111393  0.98617960  0.58342778
   0.38111393  0.01382040  0.08342778
   0.57648520  0.35758206  0.30363137
   0.57648520  0.64241794  0.80363137
   0.57809735  0.60993139  0.11221543
   0.57809735  0.39006861  0.61221543
   0.97863201  0.13097564  0.81007299
   0.97863201  0.86902436  0.31007299
   0.00242158  0.79149991  0.63246657
   0.00242158  0.20850009  0.13246657