Automatically generated mesh
      16
Reciprocal lattice
    0.12500000000000    0.12500000000000    0.12500000000000             4
    0.37500000000000    0.12500000000000    0.12500000000000             4
   -0.37500000000000    0.12500000000000    0.12500000000000             4
   -0.12500000000000    0.12500000000000    0.12500000000000             4
    0.12500000000000    0.37500000000000    0.12500000000000             4
    0.37500000000000    0.37500000000000    0.12500000000000             4
   -0.37500000000000    0.37500000000000    0.12500000000000             4
   -0.12500000000000    0.37500000000000    0.12500000000000             4
    0.12500000000000    0.12500000000000    0.37500000000000             4
    0.37500000000000    0.12500000000000    0.37500000000000             4
   -0.37500000000000    0.12500000000000    0.37500000000000             4
   -0.12500000000000    0.12500000000000    0.37500000000000             4
    0.12500000000000    0.37500000000000    0.37500000000000             4
    0.37500000000000    0.37500000000000    0.37500000000000             4
   -0.37500000000000    0.37500000000000    0.37500000000000             4
   -0.12500000000000    0.37500000000000    0.37500000000000             4
Tetrahedra
       172    0.00260416666667
         2         1         2         6         9
         2         1         5         6         9
         2         5         6         9        13
         2         2         6         9        10
         2         6         9        10        14
         2         6         9        13        14
         2         2         3         7        10
         2         2         6         7        10
         2         6         7        10        14
         2         3         7        10        11
         2         7        10        11        15
         2         7        10        14        15
         2         3         4         8        11
         2         3         7         8        11
         2         7         8        11        15
         2         4         8        11        12
         2         8        11        12        16
         2         8        11        15        16
         2         1         4         5        12
         2         4         5         8        12
         2         5         8        12        16
         2         1         5         9        12
         2         5         9        12        13
         2         5        12        13        16
         2         5         6         6        13
         2         5         5         6        13
         2         5         6        13        13
         2         6         6        13        14
         2         6        13        14        14
         2         6        13        13        14
         2         6         7         7        14
         2         6         6         7        14
         2         6         7        14        14
         2         7         7        14        15
         2         7        14        15        15
         2         7        14        14        15
         2         7         8         8        15
         2         7         7         8        15
         2         7         8        15        15
         2         8         8        15        16
         2         8        15        16        16
         2         8        15        15        16
         2         5         5         8        16
         2         5         8         8        16
         2         5         8        16        16
         2         5         5        13        16
         2         5        13        13        16
         2         5        13        16        16
         2         2         5         6        13
         2         1         2         5        13
         2         1         2         9        13
         2         2         6        13        14
         2         2        10        13        14
         2         2         9        10        13
         2         3         6         7        14
         2         2         3         6        14
         2         2         3        10        14
         2         3         7        14        15
         2         3        11        14        15
         2         3        10        11        14
         2         4         7         8        15
         2         3         4         7        15
         2         3         4        11        15
         2         4         8        15        16
         2         4        12        15        16
         2         4        11        12        15
         2         1         5         8        16
         2         1         4         8        16
         2         1         4        12        16
         2         1         5        13        16
         2         1         9        13        16
         2         1         9        12        16
         2         1         2         2         9
         2         1         1         2         9
         2         1         2         9         9
         2         2         2         9        10
         2         2         9        10        10
         2         2         9         9        10
         2         2         3         3        10
         2         2         2         3        10
         2         2         3        10        10
         2         3         3        10        11
         2         3        10        11        11
         2         3        10        10        11
         2         3         4         4        11
         2         3         3         4        11
         2         3         4        11        11
         2         4         4        11        12
         2         4        11        12        12
         2         4        11        11        12
         2         1         1         4        12
         2         1         4         4        12
         2         1         4        12        12
         2         1         1         9        12
         2         1         9         9        12
         2         1         9        12        12
         2         9        10        12        14
         2         9        12        13        14
         2        12        13        14        16
         2        10        11        12        14
         2        11        12        14        15
         2        12        14        15        16
         4        10        11        11        15
         4        10        11        14        15
         4        11        14        15        15
         2        10        11        12        16
         2        10        11        15        16
         2        10        14        15        16
         2         9        10        12        16
         2         9        10        13        16
         2        10        13        14        16
         4         9         9        12        13
         4         9        12        13        16
         4         9        13        13        16
         2        13        14        14        16
         2        13        13        14        16
         2        13        14        16        16
         2        14        14        15        16
         2        14        15        15        16
         2        14        15        16        16
         4        14        15        15        15
         2        14        14        15        15
         4        13        13        13        16
         2        13        13        16        16
         2         9        10        10        12
         2         9         9        10        12
         2         9        10        12        12
         2        10        10        11        12
         2        10        11        11        12
         2        10        11        12        12
         4        10        11        11        11
         2        10        10        11        11
         4         9         9         9        12
         2         9         9        12        12
         2         1         3         4         7
         2         1         4         7         8
         2         1         5         7         8
         2         1         2         3         7
         2         1         2         6         7
         2         1         5         6         7
         4         2         2         3         6
         4         2         3         6         7
         4         2         6         6         7
         2         1         2         3         5
         2         2         3         5         6
         2         3         5         6         7
         2         1         3         4         5
         2         3         4         5         8
         2         3         5         7         8
         4         1         4         4         8
         4         1         4         5         8
         4         4         5         8         8
         2         5         7         7         8
         2         5         7         8         8
         2         5         5         7         8
         2         5         6         7         7
         2         5         6         6         7
         2         5         5         6         7
         4         6         6         6         7
         2         6         6         7         7
         4         5         8         8         8
         2         5         5         8         8
         2         1         3         3         4
         2         1         3         4         4
         2         1         1         3         4
         2         1         2         3         3
         2         1         2         2         3
         2         1         1         2         3
         4         2         2         2         3
         2         2         2         3         3
         4         1         4         4         4
         2         1         1         4         4
