       N       E                     dE             d eps       ncg     rms          rms(c)
DAV:   1     0.504401609695E+03    0.50440E+03   -0.28633E+04  1544   0.131E+03
DAV:   2    -0.115037822151E+02   -0.51591E+03   -0.49223E+03  1824   0.308E+02
DAV:   3    -0.721424373082E+02   -0.60639E+02   -0.60166E+02  2112   0.971E+01
DAV:   4    -0.790782532239E+02   -0.69358E+01   -0.69150E+01  2840   0.311E+01
DAV:   5    -0.799261680388E+02   -0.84791E+00   -0.84776E+00  2216   0.732E+00
