<?xml version="1.0" encoding="ISO-8859-1"?>
<modeling>
 <generator>
  <i name="program" type="string">vasp </i>
  <i name="version" type="string">5.4.4.18Apr17-6-g9f103f2a35  </i>
  <i name="subversion" type="string">(build Feb 28 2020 14:15:47) complex            parallel </i>
  <i name="platform" type="string">LinuxIFC </i>
  <i name="date" type="string">2022 04 28 </i>
  <i name="time" type="string">04:14:49 </i>
 </generator>
 <incar>
  <i type="int" name="ISTART">     0</i>
  <i type="string" name="PREC">accurate</i>
  <i type="string" name="ALGO"> FAST</i>
  <i type="int" name="ISPIN">     1</i>
  <i type="int" name="ICHARG">     2</i>
  <i type="int" name="INIWAV">     1</i>
  <i type="int" name="NELM">   100</i>
  <i type="int" name="IBRION">     2</i>
  <i name="EDIFF">      0.00002000</i>
  <i name="EDIFFG">      0.00020000</i>
  <i type="int" name="NSW">   100</i>
  <i type="int" name="ISIF">     3</i>
  <i name="ENCUT">    420.00000000</i>
  <i type="string" name="LREAL"> AUTO</i>
  <i type="int" name="ISMEAR">    -5</i>
  <i type="logical" name="LWAVE"> F  </i>
  <i type="logical" name="LCHARG"> F  </i>
  <v type="int" name="KPOINT_BSE">    -1     0     0     0</v>
  <i type="int" name="NELM">   100</i>
 </incar>
 <structure name="primitive_cell" >
  <crystal>
   <varray name="basis" >
    <v>       7.51613303      -0.00005583       0.00000404 </v>
    <v>       0.00005299       6.38400426      -0.00000022 </v>
    <v>       0.00000323      -0.00000021       6.00791618 </v>
   </varray>
   <i name="volume">    288.27799413 </i>
   <varray name="rec_basis" >
    <v>       0.13304714      -0.00000110      -0.00000007 </v>
    <v>       0.00000116       0.15664150       0.00000001 </v>
    <v>      -0.00000009       0.00000001       0.16644706 </v>
   </varray>
  </crystal>
  <varray name="positions" >
   <v>       0.00000039      -0.31873127       0.40576552 </v>
   <v>       0.00000020      -0.31293092      -0.26139727 </v>
   <v>       0.00000253       0.38401973       0.30063070 </v>
   <v>       0.21726458      -0.17300504       0.29191417 </v>
   <v>      -0.21726458      -0.17300504       0.29191417 </v>
   <v>      -0.00000182       0.34843911      -0.10685431 </v>
   <v>       0.24262726       0.18379482       0.40598938 </v>
   <v>      -0.24262726       0.18379482       0.40598938 </v>
   <v>       0.25737274      -0.18379482      -0.09401062 </v>
   <v>      -0.25737274      -0.18379482      -0.09401062 </v>
   <v>      -0.49999818      -0.34843911       0.39314569 </v>
   <v>      -0.28273542       0.17300504      -0.20808583 </v>
   <v>       0.28273542       0.17300504      -0.20808583 </v>
   <v>       0.49999747      -0.38401973      -0.19936930 </v>
   <v>       0.49999980       0.31293092       0.23860273 </v>
   <v>       0.49999961       0.31873127      -0.09423448 </v>
  </varray>
 </structure>
 <varray name="primitive_index" >
  <v type="int" >        1 </v>
  <v type="int" >        7 </v>
  <v type="int" >        9 </v>
  <v type="int" >        3 </v>
  <v type="int" >        6 </v>
  <v type="int" >       11 </v>
  <v type="int" >       13 </v>
  <v type="int" >       16 </v>
  <v type="int" >       14 </v>
  <v type="int" >       15 </v>
  <v type="int" >       12 </v>
  <v type="int" >        5 </v>
  <v type="int" >        4 </v>
  <v type="int" >       10 </v>
  <v type="int" >        8 </v>
  <v type="int" >        2 </v>
 </varray>
 <kpoints>
  <generation param="Monkhorst-Pack">
   <v type="int" name="divisions">       4        4        4 </v>
   <v name="usershift">      0.00000000       0.00000000       0.00000000 </v>
   <v name="genvec1">      0.25000000       0.00000000       0.00000000 </v>
   <v name="genvec2">      0.00000000       0.25000000       0.00000000 </v>
   <v name="genvec3">      0.00000000      -0.00000000       0.25000000 </v>
   <v name="shift">      0.50000000       0.50000000       0.50000000 </v>
  </generation>
  <varray name="kpointlist" >
   <v>       0.12500000       0.12500000       0.12500000 </v>
   <v>       0.37500000       0.12500000       0.12500000 </v>
   <v>      -0.37500000       0.12500000       0.12500000 </v>
   <v>      -0.12500000       0.12500000       0.12500000 </v>
   <v>       0.12500000       0.37500000       0.12500000 </v>
   <v>       0.37500000       0.37500000       0.12500000 </v>
   <v>      -0.37500000       0.37500000       0.12500000 </v>
   <v>      -0.12500000       0.37500000       0.12500000 </v>
   <v>       0.12500000       0.12500000       0.37500000 </v>
   <v>       0.37500000       0.12500000       0.37500000 </v>
   <v>      -0.37500000       0.12500000       0.37500000 </v>
   <v>      -0.12500000       0.12500000       0.37500000 </v>
   <v>       0.12500000       0.37500000       0.37500000 </v>
   <v>       0.37500000       0.37500000       0.37500000 </v>
   <v>      -0.37500000       0.37500000       0.37500000 </v>
   <v>      -0.12500000       0.37500000       0.37500000 </v>
  </varray>
  <varray name="weights" >
   <v>       0.06250000 </v>
   <v>       0.06250000 </v>
   <v>       0.06250000 </v>
   <v>       0.06250000 </v>
   <v>       0.06250000 </v>
   <v>       0.06250000 </v>
   <v>       0.06250000 </v>
   <v>       0.06250000 </v>
   <v>       0.06250000 </v>
   <v>       0.06250000 </v>
   <v>       0.06250000 </v>
   <v>       0.06250000 </v>
   <v>       0.06250000 </v>
   <v>       0.06250000 </v>
   <v>       0.06250000 </v>
   <v>       0.06250000 </v>
  </varray>
  <varray name="tetrahedronlist"  type="int" >
   <v type="int" >        2        1        2        6        9 </v>
   <v type="int" >        2        1        5        6        9 </v>
   <v type="int" >        2        5        6        9       13 </v>
   <v type="int" >        2        2        6        9       10 </v>
   <v type="int" >        2        6        9       10       14 </v>
   <v type="int" >        2        6        9       13       14 </v>
   <v type="int" >        2        2        3        7       10 </v>
   <v type="int" >        2        2        6        7       10 </v>
   <v type="int" >        2        6        7       10       14 </v>
   <v type="int" >        2        3        7       10       11 </v>
   <v type="int" >        2        7       10       11       15 </v>
   <v type="int" >        2        7       10       14       15 </v>
   <v type="int" >        2        3        4        8       11 </v>
   <v type="int" >        2        3        7        8       11 </v>
   <v type="int" >        2        7        8       11       15 </v>
   <v type="int" >        2        4        8       11       12 </v>
   <v type="int" >        2        8       11       12       16 </v>
   <v type="int" >        2        8       11       15       16 </v>
   <v type="int" >        2        1        4        5       12 </v>
   <v type="int" >        2        4        5        8       12 </v>
   <v type="int" >        2        5        8       12       16 </v>
   <v type="int" >        2        1        5        9       12 </v>
   <v type="int" >        2        5        9       12       13 </v>
   <v type="int" >        2        5       12       13       16 </v>
   <v type="int" >        2        5        6        6       13 </v>
   <v type="int" >        2        5        5        6       13 </v>
   <v type="int" >        2        5        6       13       13 </v>
   <v type="int" >        2        6        6       13       14 </v>
   <v type="int" >        2        6       13       14       14 </v>
   <v type="int" >        2        6       13       13       14 </v>
   <v type="int" >        2        6        7        7       14 </v>
   <v type="int" >        2        6        6        7       14 </v>
   <v type="int" >        2        6        7       14       14 </v>
   <v type="int" >        2        7        7       14       15 </v>
   <v type="int" >        2        7       14       15       15 </v>
   <v type="int" >        2        7       14       14       15 </v>
   <v type="int" >        2        7        8        8       15 </v>
   <v type="int" >        2        7        7        8       15 </v>
   <v type="int" >        2        7        8       15       15 </v>
   <v type="int" >        2        8        8       15       16 </v>
   <v type="int" >        2        8       15       16       16 </v>
   <v type="int" >        2        8       15       15       16 </v>
   <v type="int" >        2        5        5        8       16 </v>
   <v type="int" >        2        5        8        8       16 </v>
   <v type="int" >        2        5        8       16       16 </v>
   <v type="int" >        2        5        5       13       16 </v>
   <v type="int" >        2        5       13       13       16 </v>
   <v type="int" >        2        5       13       16       16 </v>
   <v type="int" >        2        2        5        6       13 </v>
   <v type="int" >        2        1        2        5       13 </v>
   <v type="int" >        2        1        2        9       13 </v>
   <v type="int" >        2        2        6       13       14 </v>
   <v type="int" >        2        2       10       13       14 </v>
   <v type="int" >        2        2        9       10       13 </v>
   <v type="int" >        2        3        6        7       14 </v>
   <v type="int" >        2        2        3        6       14 </v>
   <v type="int" >        2        2        3       10       14 </v>
   <v type="int" >        2        3        7       14       15 </v>
   <v type="int" >        2        3       11       14       15 </v>
   <v type="int" >        2        3       10       11       14 </v>
   <v type="int" >        2        4        7        8       15 </v>
   <v type="int" >        2        3        4        7       15 </v>
   <v type="int" >        2        3        4       11       15 </v>
   <v type="int" >        2        4        8       15       16 </v>
   <v type="int" >        2        4       12       15       16 </v>
   <v type="int" >        2        4       11       12       15 </v>
   <v type="int" >        2        1        5        8       16 </v>
   <v type="int" >        2        1        4        8       16 </v>
   <v type="int" >        2        1        4       12       16 </v>
   <v type="int" >        2        1        5       13       16 </v>
   <v type="int" >        2        1        9       13       16 </v>
   <v type="int" >        2        1        9       12       16 </v>
   <v type="int" >        2        1        2        2        9 </v>
   <v type="int" >        2        1        1        2        9 </v>
   <v type="int" >        2        1        2        9        9 </v>
   <v type="int" >        2        2        2        9       10 </v>
   <v type="int" >        2        2        9       10       10 </v>
   <v type="int" >        2        2        9        9       10 </v>
   <v type="int" >        2        2        3        3       10 </v>
   <v type="int" >        2        2        2        3       10 </v>
   <v type="int" >        2        2        3       10       10 </v>
   <v type="int" >        2        3        3       10       11 </v>
   <v type="int" >        2        3       10       11       11 </v>
   <v type="int" >        2        3       10       10       11 </v>
   <v type="int" >        2        3        4        4       11 </v>
   <v type="int" >        2        3        3        4       11 </v>
   <v type="int" >        2        3        4       11       11 </v>
   <v type="int" >        2        4        4       11       12 </v>
   <v type="int" >        2        4       11       12       12 </v>
   <v type="int" >        2        4       11       11       12 </v>
   <v type="int" >        2        1        1        4       12 </v>
   <v type="int" >        2        1        4        4       12 </v>
   <v type="int" >        2        1        4       12       12 </v>
   <v type="int" >        2        1        1        9       12 </v>
   <v type="int" >        2        1        9        9       12 </v>
   <v type="int" >        2        1        9       12       12 </v>
   <v type="int" >        2        9       10       12       14 </v>
   <v type="int" >        2        9       12       13       14 </v>
   <v type="int" >        2       12       13       14       16 </v>
   <v type="int" >        2       10       11       12       14 </v>
   <v type="int" >        2       11       12       14       15 </v>
   <v type="int" >        2       12       14       15       16 </v>
   <v type="int" >        4       10       11       11       15 </v>
   <v type="int" >        4       10       11       14       15 </v>
   <v type="int" >        4       11       14       15       15 </v>
   <v type="int" >        2       10       11       12       16 </v>
   <v type="int" >        2       10       11       15       16 </v>
   <v type="int" >        2       10       14       15       16 </v>
   <v type="int" >        2        9       10       12       16 </v>
   <v type="int" >        2        9       10       13       16 </v>
   <v type="int" >        2       10       13       14       16 </v>
   <v type="int" >        4        9        9       12       13 </v>
   <v type="int" >        4        9       12       13       16 </v>
   <v type="int" >        4        9       13       13       16 </v>
   <v type="int" >        2       13       14       14       16 </v>
   <v type="int" >        2       13       13       14       16 </v>
   <v type="int" >        2       13       14       16       16 </v>
   <v type="int" >        2       14       14       15       16 </v>
   <v type="int" >        2       14       15       15       16 </v>
   <v type="int" >        2       14       15       16       16 </v>
   <v type="int" >        4       14       15       15       15 </v>
   <v type="int" >        2       14       14       15       15 </v>
   <v type="int" >        4       13       13       13       16 </v>
   <v type="int" >        2       13       13       16       16 </v>
   <v type="int" >        2        9       10       10       12 </v>
   <v type="int" >        2        9        9       10       12 </v>
   <v type="int" >        2        9       10       12       12 </v>
   <v type="int" >        2       10       10       11       12 </v>
   <v type="int" >        2       10       11       11       12 </v>
   <v type="int" >        2       10       11       12       12 </v>
   <v type="int" >        4       10       11       11       11 </v>
   <v type="int" >        2       10       10       11       11 </v>
   <v type="int" >        4        9        9        9       12 </v>
   <v type="int" >        2        9        9       12       12 </v>
   <v type="int" >        2        1        3        4        7 </v>
   <v type="int" >        2        1        4        7        8 </v>
   <v type="int" >        2        1        5        7        8 </v>
   <v type="int" >        2        1        2        3        7 </v>
   <v type="int" >        2        1        2        6        7 </v>
   <v type="int" >        2        1        5        6        7 </v>
   <v type="int" >        4        2        2        3        6 </v>
   <v type="int" >        4        2        3        6        7 </v>
   <v type="int" >        4        2        6        6        7 </v>
   <v type="int" >        2        1        2        3        5 </v>
   <v type="int" >        2        2        3        5        6 </v>
   <v type="int" >        2        3        5        6        7 </v>
   <v type="int" >        2        1        3        4        5 </v>
   <v type="int" >        2        3        4        5        8 </v>
   <v type="int" >        2        3        5        7        8 </v>
   <v type="int" >        4        1        4        4        8 </v>
   <v type="int" >        4        1        4        5        8 </v>
   <v type="int" >        4        4        5        8        8 </v>
   <v type="int" >        2        5        7        7        8 </v>
   <v type="int" >        2        5        7        8        8 </v>
   <v type="int" >        2        5        5        7        8 </v>
   <v type="int" >        2        5        6        7        7 </v>
   <v type="int" >        2        5        6        6        7 </v>
   <v type="int" >        2        5        5        6        7 </v>
   <v type="int" >        4        6        6        6        7 </v>
   <v type="int" >        2        6        6        7        7 </v>
   <v type="int" >        4        5        8        8        8 </v>
   <v type="int" >        2        5        5        8        8 </v>
   <v type="int" >        2        1        3        3        4 </v>
   <v type="int" >        2        1        3        4        4 </v>
   <v type="int" >        2        1        1        3        4 </v>
   <v type="int" >        2        1        2        3        3 </v>
   <v type="int" >        2        1        2        2        3 </v>
   <v type="int" >        2        1        1        2        3 </v>
   <v type="int" >        4        2        2        2        3 </v>
   <v type="int" >        2        2        2        3        3 </v>
   <v type="int" >        4        1        4        4        4 </v>
   <v type="int" >        2        1        1        4        4 </v>
  </varray>
  <i name="volumeweight">      0.00260417 </i>
 </kpoints>
 <parameters>
  <separator name="general" >
   <i type="string" name="SYSTEM">unknown system</i>
   <i type="logical" name="LCOMPAT"> F  </i>
  </separator>
  <separator name="electronic" >
   <i type="string" name="PREC">accura</i>
   <i name="ENMAX">    420.00000000</i>
   <i name="ENAUG">    628.94500000</i>
   <i name="EDIFF">      0.00002000</i>
   <i type="int" name="IALGO">    68</i>
   <i type="int" name="IWAVPR">    11</i>
   <i type="int" name="NBANDS">    48</i>
   <i name="NELECT">     76.00000000</i>
   <i type="int" name="TURBO">     0</i>
   <i type="int" name="IRESTART">     0</i>
   <i type="int" name="NREBOOT">     0</i>
   <i type="int" name="NMIN">     0</i>
   <i name="EREF">      0.00000000</i>
   <separator name="electronic smearing" >
    <i type="int" name="ISMEAR">    -5</i>
    <i name="SIGMA">      0.20000000</i>
    <i name="KSPACING">      0.50000000</i>
    <i type="logical" name="KGAMMA"> T  </i>
   </separator>
   <separator name="electronic projectors" >
    <i type="logical" name="LREAL"> T  </i>
    <v name="ROPT">     -0.00025000     -0.00025000     -0.00025000</v>
    <i type="int" name="LMAXPAW">  -100</i>
    <i type="int" name="LMAXMIX">     2</i>
    <i type="logical" name="NLSPLINE"> F  </i>
   </separator>
   <separator name="electronic startup" >
    <i type="int" name="ISTART">     0</i>
    <i type="int" name="ICHARG">     2</i>
    <i type="int" name="INIWAV">     1</i>
   </separator>
   <separator name="electronic spin" >
    <i type="int" name="ISPIN">     1</i>
    <i type="logical" name="LNONCOLLINEAR"> F  </i>
    <v name="MAGMOM">      1.00000000      1.00000000      1.00000000      1.00000000      1.00000000      1.00000000      1.00000000      1.00000000      1.00000000      1.00000000      1.00000000      1.00000000      1.00000000      1.00000000      1.00000000      1.00000000</v>
    <i name="NUPDOWN">     -1.00000000</i>
    <i type="logical" name="LSORBIT"> F  </i>
    <v name="SAXIS">      0.00000000      0.00000000      1.00000000</v>
    <i type="logical" name="LSPIRAL"> F  </i>
    <v name="QSPIRAL">      0.00000000      0.00000000      0.00000000</v>
    <i type="logical" name="LZEROZ"> F  </i>
   </separator>
   <separator name="electronic exchange-correlation" >
    <i type="logical" name="LASPH"> F  </i>
    <i type="logical" name="LMETAGGA"> F  </i>
   </separator>
   <separator name="electronic convergence" >
    <i type="int" name="NELM">   100</i>
    <i type="int" name="NELMDL">    -5</i>
    <i type="int" name="NELMIN">     2</i>
    <i name="ENINI">    420.00000000</i>
    <separator name="electronic convergence detail" >
     <i type="logical" name="LDIAG"> T  </i>
     <i type="logical" name="LSUBROT"> F  </i>
     <i name="WEIMIN">      0.00100000</i>
     <i name="EBREAK">      0.00000010</i>
     <i name="DEPER">      0.30000000</i>
     <i type="int" name="NRMM">     4</i>
     <i name="TIME">      0.40000000</i>
    </separator>
   </separator>
   <separator name="electronic mixer" >
    <i name="AMIX">      0.40000000</i>
    <i name="BMIX">      1.00000000</i>
    <i name="AMIN">      0.10000000</i>
    <i name="AMIX_MAG">      1.60000000</i>
    <i name="BMIX_MAG">      1.00000000</i>
    <separator name="electronic mixer details" >
     <i type="int" name="IMIX">     4</i>
     <i type="logical" name="MIXFIRST"> F  </i>
     <i type="int" name="MAXMIX">   -45</i>
     <i name="WC">    100.00000000</i>
     <i type="int" name="INIMIX">     1</i>
     <i type="int" name="MIXPRE">     1</i>
     <i type="int" name="MREMOVE">     5</i>
    </separator>
   </separator>
   <separator name="electronic dipolcorrection" >
    <i type="logical" name="LDIPOL"> F  </i>
    <i type="logical" name="LMONO"> F  </i>
    <i type="int" name="IDIPOL">     0</i>
    <i name="EPSILON">      1.00000000</i>
    <v name="DIPOL">   -100.00000000   -100.00000000   -100.00000000</v>
    <i name="EFIELD">      0.00000000</i>
   </separator>
  </separator>
  <separator name="grids" >
   <i type="int" name="NGX">    50</i>
   <i type="int" name="NGY">    48</i>
   <i type="int" name="NGZ">    40</i>
   <i type="int" name="NGXF">   100</i>
   <i type="int" name="NGYF">    96</i>
   <i type="int" name="NGZF">    80</i>
   <i type="logical" name="ADDGRID"> F  </i>
  </separator>
  <separator name="ionic" >
   <i type="int" name="NSW">   100</i>
   <i type="int" name="IBRION">     2</i>
   <i type="int" name="MDALGO">     0</i>
   <i type="int" name="ISIF">     3</i>
   <i name="PSTRESS">      0.00000000</i>
   <i name="EDIFFG">      0.00020000</i>
   <i type="int" name="NFREE">     1</i>
   <i name="POTIM">      0.50000000</i>
   <i name="SMASS">     -3.00000000</i>
   <i name="SCALEE">      1.00000000</i>
  </separator>
  <separator name="ionic md" >
   <i name="TEBEG">      0.00010000</i>
   <i name="TEEND">      0.00010000</i>
   <i type="int" name="NBLOCK">     1</i>
   <i type="int" name="KBLOCK">   100</i>
   <i type="int" name="NPACO">   256</i>
   <i name="APACO">     16.00000000</i>
  </separator>
  <separator name="symmetry" >
   <i type="int" name="ISYM">     2</i>
   <i name="SYMPREC">      0.00001000</i>
  </separator>
  <separator name="dos" >
   <i type="int" name="LORBIT">     0</i>
   <v name="RWIGS">     -1.00000000     -1.00000000     -1.00000000</v>
   <i type="int" name="NEDOS">   301</i>
   <i name="EMIN">     10.00000000</i>
   <i name="EMAX">    -10.00000000</i>
   <i name="EFERMI">      0.00000000</i>
  </separator>
  <separator name="writing" >
   <i type="int" name="NWRITE">     2</i>
   <i type="logical" name="LWAVE"> F  </i>
   <i type="logical" name="LDOWNSAMPLE"> F  </i>
   <i type="logical" name="LCHARG"> F  </i>
   <i type="logical" name="LPARD"> F  </i>
   <i type="logical" name="LVTOT"> F  </i>
   <i type="logical" name="LVHAR"> F  </i>
   <i type="logical" name="LELF"> F  </i>
   <i type="logical" name="LOPTICS"> F  </i>
   <v name="STM">      0.00000000      0.00000000      0.00000000      0.00000000      0.00000000      0.00000000      0.00000000</v>
  </separator>
  <separator name="performance" >
   <i type="int" name="NPAR">     4</i>
   <i type="int" name="NSIM">     4</i>
   <i type="int" name="NBLK">    -1</i>
   <i type="logical" name="LPLANE"> T  </i>
   <i type="logical" name="LSCALAPACK"> T  </i>
   <i type="logical" name="LSCAAWARE"> F  </i>
   <i type="logical" name="LSCALU"> F  </i>
   <i type="logical" name="LASYNC"> F  </i>
   <i type="logical" name="LORBITALREAL"> F  </i>
  </separator>
  <separator name="miscellaneous" >
   <i type="int" name="IDIOT">     3</i>
   <i type="int" name="ISPECIAL">     0</i>
   <i type="logical" name="LMUSIC"> F  </i>
   <v name="POMASS">     30.97400000     32.06600000      7.01000000</v>
   <v name="DARWINR">      0.00000000      0.00000000      0.00000000</v>
   <v name="DARWINV">      1.00000000      1.00000000      1.00000000</v>
   <i type="logical" name="LCORR"> T  </i>
  </separator>
  <i type="logical" name="GGA_COMPAT"> T  </i>
  <i type="logical" name="LBERRY"> F  </i>
  <i type="int" name="ICORELEVEL">     0</i>
  <i type="logical" name="LDAU"> F  </i>
  <i type="int" name="I_CONSTRAINED_M">     0</i>
  <separator name="electronic exchange-correlation" >
   <i type="string" name="GGA">--</i>
   <i type="int" name="VOSKOWN">     0</i>
   <i type="logical" name="LHFCALC"> F  </i>
   <i type="string" name="PRECFOCK"></i>
   <i type="logical" name="LSYMGRAD"> F  </i>
   <i type="logical" name="LHFONE"> F  </i>
   <i type="logical" name="LRHFCALC"> F  </i>
   <i type="logical" name="LTHOMAS"> F  </i>
   <i type="logical" name="LMODELHF"> F  </i>
   <i name="ENCUT4O">     -1.00000000</i>
   <i type="int" name="EXXOEP">     0</i>
   <i type="int" name="FOURORBIT">     0</i>
   <i name="AEXX">      0.00000000</i>
   <i name="HFALPHA">      0.00000000</i>
   <i name="MCALPHA">      0.00000000</i>
   <i name="ALDAX">      1.00000000</i>
   <i name="AGGAX">      1.00000000</i>
   <i name="ALDAC">      1.00000000</i>
   <i name="AGGAC">      1.00000000</i>
   <i type="int" name="NKREDX">     1</i>
   <i type="int" name="NKREDY">     1</i>
   <i type="int" name="NKREDZ">     1</i>
   <i type="logical" name="SHIFTRED"> F  </i>
   <i type="logical" name="ODDONLY"> F  </i>
   <i type="logical" name="EVENONLY"> F  </i>
   <i type="int" name="LMAXFOCK">     0</i>
   <i type="int" name="NMAXFOCKAE">     0</i>
   <i type="logical" name="LFOCKAEDFT"> F  </i>
   <i name="HFSCREEN">      0.00000000</i>
   <i name="HFSCREENC">      0.00000000</i>
   <i type="int" name="NBANDSGWLOW">     0</i>
  </separator>
  <separator name="vdW DFT" >
   <i type="logical" name="LUSE_VDW"> F  </i>
   <i name="Zab_VDW">     -0.84910000</i>
   <i name="PARAM1">      0.12340000</i>
   <i name="PARAM2">      1.00000000</i>
   <i name="PARAM3">      0.00000000</i>
  </separator>
  <separator name="model GW" >
   <i type="int" name="MODEL_GW">     0</i>
   <i name="MODEL_EPS0">     10.81042478</i>
   <i name="MODEL_ALPHA">      1.00000000</i>
  </separator>
  <separator name="linear response parameters" >
   <i type="logical" name="LEPSILON"> F  </i>
   <i type="logical" name="LRPA"> F  </i>
   <i type="logical" name="LNABLA"> F  </i>
   <i type="logical" name="LVEL"> F  </i>
   <i type="int" name="KINTER">     0</i>
   <i name="CSHIFT">      0.10000000</i>
   <i name="OMEGAMAX">     -1.00000000</i>
   <i name="DEG_THRESHOLD">      0.00200000</i>
   <i name="RTIME">     -0.10000000</i>
   <i name="WPLASMAI">      0.00000000</i>
   <v name="DFIELD">      0.00000000      0.00000000      0.00000000</v>
   <v name="WPLASMA">      0.00000000      0.00000000      0.00000000      0.00000000      0.00000000      0.00000000      0.00000000      0.00000000      0.00000000</v>
  </separator>
  <separator name="orbital magnetization" >
   <i type="logical" name="NUCIND"> F  </i>
   <v name="MAGPOS">      0.00000000      0.00000000      0.00000000</v>
   <i type="logical" name="LNICSALL"> T  </i>
   <i type="logical" name="ORBITALMAG"> F  </i>
   <i type="logical" name="LMAGBLOCH"> F  </i>
   <i type="logical" name="LCHIMAG"> F  </i>
   <i type="logical" name="LGAUGE"> T  </i>
   <i type="int" name="MAGATOM">     0</i>
   <v name="MAGDIPOL">      0.00000000      0.00000000      0.00000000</v>
   <v name="AVECCONST">      0.00000000      0.00000000      0.00000000</v>
  </separator>
  <separator name="response functions" >
   <i type="logical" name="LADDER"> F  </i>
   <i type="logical" name="LRPAFORCE"> F  </i>
   <i type="logical" name="LFXC"> F  </i>
   <i type="logical" name="LHARTREE"> T  </i>
   <i type="int" name="IBSE">     0</i>
   <v type="int" name="KPOINT">    -1     0     0     0</v>
   <i type="logical" name="LTCTE"> F  </i>
   <i type="logical" name="LTETE"> F  </i>
   <i type="logical" name="LTRIPLET"> F  </i>
   <i type="logical" name="LFXCEPS"> F  </i>
   <i type="logical" name="LFXHEG"> F  </i>
   <i type="int" name="NATURALO">     2</i>
   <i type="logical" name="L2ORDER"> F  </i>
   <i type="logical" name="LMP2LT"> F  </i>
   <i type="logical" name="LUSEW"> F  </i>
   <i name="ENCUTGW">     -2.00000000</i>
   <i name="ENCUTGWSOFT">     -2.00000000</i>
   <i name="ENCUTLF">     -1.00000000</i>
   <i type="int" name="LMAXMP2">    -1</i>
   <i name="SCISSOR">      0.00000000</i>
   <i type="int" name="NOMEGA">     0</i>
   <i type="int" name="NOMEGAR">     0</i>
   <i type="int" name="NBANDSGW">    -1</i>
   <i type="int" name="NBANDSO">    -1</i>
   <i type="int" name="NBANDSV">    -1</i>
   <i type="int" name="NELM">   100</i>
   <i type="int" name="NELMHF">     1</i>
   <i type="int" name="DIM">     3</i>
   <i type="int" name="ANTIRES">     0</i>
   <i name="OMEGAMAX">    -30.00000000</i>
   <i name="OMEGAMIN">    -30.00000000</i>
   <i name="OMEGATL">   -200.00000000</i>
   <i type="int" name="OMEGAGRID">   140</i>
   <i name="CSHIFT">     -0.10000000</i>
   <i type="logical" name="SELFENERGY"> F  </i>
   <i type="logical" name="LSPECTRAL"> F  </i>
   <i type="logical" name="LSPECTRALGW"> F  </i>
   <i type="logical" name="LSINGLES"> F  </i>
   <i type="logical" name="LFERMIGW"> F  </i>
   <i type="logical" name="ODDONLYGW"> F  </i>
   <i type="logical" name="EVENONLYGW"> F  </i>
   <i type="int" name="NKREDLFX">     1</i>
   <i type="int" name="NKREDLFY">     1</i>
   <i type="int" name="NKREDLFZ">     1</i>
   <i type="int" name="MAXMEM">  2800</i>
   <i type="int" name="TELESCOPE">     0</i>
   <i type="int" name="TAUPAR">     1</i>
   <i type="int" name="OMEGAPAR">    -1</i>
   <i name="LAMBDA">      1.00000000</i>
  </separator>
  <separator name="External order field" >
   <i name="OFIELD_KAPPA">      0.00000000</i>
   <v name="OFIELD_K">      0.00000000      0.00000000      0.00000000</v>
   <i name="OFIELD_Q6_NEAR">      0.00000000</i>
   <i name="OFIELD_Q6_FAR">      0.00000000</i>
   <i name="OFIELD_A">      0.00000000</i>
  </separator>
 </parameters>
 <atominfo>
  <atoms>      16 </atoms>
  <types>       3 </types>
  <array name="atoms" >
   <dimension dim="1">ion</dimension>
   <field type="string">element</field>
   <field type="int">atomtype</field>
   <set>
    <rc><c>P </c><c>   1</c></rc>
    <rc><c>P </c><c>   1</c></rc>
    <rc><c>S </c><c>   2</c></rc>
    <rc><c>S </c><c>   2</c></rc>
    <rc><c>S </c><c>   2</c></rc>
    <rc><c>S </c><c>   2</c></rc>
    <rc><c>S </c><c>   2</c></rc>
    <rc><c>S </c><c>   2</c></rc>
    <rc><c>S </c><c>   2</c></rc>
    <rc><c>S </c><c>   2</c></rc>
    <rc><c>Li</c><c>   3</c></rc>
    <rc><c>Li</c><c>   3</c></rc>
    <rc><c>Li</c><c>   3</c></rc>
    <rc><c>Li</c><c>   3</c></rc>
    <rc><c>Li</c><c>   3</c></rc>
    <rc><c>Li</c><c>   3</c></rc>
   </set>
  </array>
  <array name="atomtypes" >
   <dimension dim="1">type</dimension>
   <field type="int">atomspertype</field>
   <field type="string">element</field>
   <field>mass</field>
   <field>valence</field>
   <field type="string">pseudopotential</field>
   <set>
    <rc><c>   2</c><c>P </c><c>     30.97400000</c><c>      5.00000000</c><c>  PAW P 26Mar2009                       </c></rc>
    <rc><c>   8</c><c>S </c><c>     32.06600000</c><c>      6.00000000</c><c>  PAW S 27Mar2009                       </c></rc>
    <rc><c>   6</c><c>Li</c><c>      7.01000000</c><c>      3.00000000</c><c>  PAW Li_sv 10Sep2004                   </c></rc>
   </set>
  </array>
 </atominfo>
 <structure name="initialpos" >
  <crystal>
   <varray name="basis" >
    <v>       7.51613303      -0.00005583       0.00000404 </v>
    <v>       0.00005299       6.38400426      -0.00000022 </v>
    <v>       0.00000323      -0.00000021       6.00791618 </v>
   </varray>
   <i name="volume">    288.27799413 </i>
   <varray name="rec_basis" >
    <v>       0.13304714      -0.00000110      -0.00000007 </v>
    <v>       0.00000116       0.15664150       0.00000001 </v>
    <v>      -0.00000009       0.00000001       0.16644706 </v>
   </varray>
  </crystal>
  <varray name="positions" >
   <v>       0.00000039       0.68126873       0.40576552 </v>
   <v>       0.49999961       0.31873127       0.90576552 </v>
   <v>       0.21726458       0.82699496       0.29191417 </v>
   <v>       0.28273542       0.17300504       0.79191417 </v>
   <v>       0.71726458       0.17300504       0.79191417 </v>
   <v>       0.78273542       0.82699496       0.29191417 </v>
   <v>       0.00000020       0.68706908       0.73860273 </v>
   <v>       0.49999980       0.31293092       0.23860273 </v>
   <v>       0.00000253       0.38401973       0.30063070 </v>
   <v>       0.49999747       0.61598027       0.80063070 </v>
   <v>       0.99999818       0.34843911       0.89314569 </v>
   <v>       0.50000182       0.65156089       0.39314569 </v>
   <v>       0.24262726       0.18379482       0.40598938 </v>
   <v>       0.25737274       0.81620518       0.90598938 </v>
   <v>       0.74262726       0.81620518       0.90598938 </v>
   <v>       0.75737274       0.18379482       0.40598938 </v>
  </varray>
 </structure>
 <calculation>
  <scstep>
   <time name="dav">    0.38    0.41</time>
   <time name="total">    0.40    0.45</time>
   <energy>
    <i name="alphaZ">     68.45114304 </i>
    <i name="ewald">  -2710.42892618 </i>
    <i name="hartreedc">   -633.88219035 </i>
    <i name="XCdc">    182.20284335 </i>
    <i name="pawpsdc">   2494.22442938 </i>
    <i name="pawaedc">  -2541.12215007 </i>
    <i name="eentropy">      0.00000000 </i>
    <i name="bandstr">   -124.13136326 </i>
    <i name="atom">   3769.08782378 </i>
    <i name="e_fr_energy">    504.40160969 </i>
    <i name="e_wo_entrp">    504.40160969 </i>
    <i name="e_0_energy">    504.40160969 </i>
   </energy>
  </scstep>
  <scstep>
   <time name="dav">    0.40    0.41</time>
   <time name="total">    0.40    0.41</time>
   <energy>
    <i name="e_fr_energy">    -11.50378222 </i>
    <i name="e_wo_entrp">    -11.50378222 </i>
    <i name="e_0_energy">    -11.50378222 </i>
   </energy>
  </scstep>
  <scstep>
   <time name="dav">    0.43    0.43</time>
   <time name="total">    0.43    0.43</time>
   <energy>
    <i name="e_fr_energy">    -72.14243731 </i>
    <i name="e_wo_entrp">    -72.14243731 </i>
    <i name="e_0_energy">    -72.14243731 </i>
   </energy>
  </scstep>
  <scstep>
   <time name="dav">    0.55    0.55</time>
   <time name="total">    0.55    0.55</time>
   <energy>
    <i name="e_fr_energy">    -79.07825322 </i>
    <i name="e_wo_entrp">    -79.07825322 </i>
    <i name="e_0_energy">    -79.07825322 </i>
   </energy>
  </scstep>
  <scstep>
   <time name="dav">    0.46    0.46</time>
