  16  16   0   0
  0.1803581E+02  0.7580224E-09  0.6333473E-09  0.6010791E-09  0.5000000E-15
  1.000000000000000E-004
  CAR 
 unknown system                          
     11.27402866    -43.45160156  301      2.38111375      1.00000000
    -43.452  0.0000E+00  0.0000E+00
    -43.269  0.0000E+00  0.0000E+00
    -43.087  0.0000E+00  0.0000E+00
    -42.904  0.0000E+00  0.0000E+00
    -42.722  0.0000E+00  0.0000E+00
    -42.540  0.0000E+00  0.0000E+00
    -42.357  0.0000E+00  0.0000E+00
    -42.175  0.0000E+00  0.0000E+00
    -41.992  0.0000E+00  0.0000E+00
    -41.810  0.0000E+00  0.0000E+00
    -41.627  0.0000E+00  0.0000E+00
    -41.445  0.0000E+00  0.0000E+00
    -41.263  0.0000E+00  0.0000E+00
    -41.080  0.0000E+00  0.0000E+00
    -40.898  0.0000E+00  0.4000E+01
    -40.715  0.0000E+00  0.1200E+02
    -40.533  0.0000E+00  0.1200E+02
    -40.350  0.0000E+00  0.1200E+02
    -40.168  0.0000E+00  0.1200E+02
    -39.986  0.0000E+00  0.1200E+02
    -39.803  0.0000E+00  0.1200E+02
    -39.621  0.0000E+00  0.1200E+02
    -39.438  0.0000E+00  0.1200E+02
    -39.256  0.0000E+00  0.1200E+02
    -39.074  0.0000E+00  0.1200E+02
    -38.891  0.0000E+00  0.1200E+02
    -38.709  0.0000E+00  0.1200E+02
    -38.526  0.0000E+00  0.1200E+02
    -38.344  0.0000E+00  0.1200E+02
    -38.161  0.0000E+00  0.1200E+02
    -37.979  0.0000E+00  0.1200E+02
    -37.797  0.0000E+00  0.1200E+02
    -37.614  0.0000E+00  0.1200E+02
    -37.432  0.0000E+00  0.1200E+02
    -37.249  0.0000E+00  0.1200E+02
    -37.067  0.0000E+00  0.1200E+02
    -36.885  0.0000E+00  0.1200E+02
    -36.702  0.0000E+00  0.1200E+02
    -36.520  0.0000E+00  0.1200E+02
    -36.337  0.0000E+00  0.1200E+02
    -36.155  0.0000E+00  0.1200E+02
    -35.972  0.0000E+00  0.1200E+02
    -35.790  0.0000E+00  0.1200E+02
    -35.608  0.0000E+00  0.1200E+02
    -35.425  0.0000E+00  0.1200E+02
    -35.243  0.0000E+00  0.1200E+02
    -35.060  0.0000E+00  0.1200E+02
    -34.878  0.0000E+00  0.1200E+02
    -34.696  0.0000E+00  0.1200E+02
    -34.513  0.0000E+00  0.1200E+02
    -34.331  0.0000E+00  0.1200E+02
    -34.148  0.0000E+00  0.1200E+02
    -33.966  0.0000E+00  0.1200E+02
    -33.783  0.0000E+00  0.1200E+02
    -33.601  0.0000E+00  0.1200E+02
    -33.419  0.0000E+00  0.1200E+02
    -33.236  0.0000E+00  0.1200E+02
    -33.054  0.0000E+00  0.1200E+02
    -32.871  0.0000E+00  0.1200E+02
    -32.689  0.0000E+00  0.1200E+02
    -32.506  0.0000E+00  0.1200E+02
    -32.324  0.0000E+00  0.1200E+02
    -32.142  0.0000E+00  0.1200E+02
    -31.959  0.0000E+00  0.1200E+02
    -31.777  0.0000E+00  0.1200E+02
    -31.594  0.0000E+00  0.1200E+02
    -31.412  0.0000E+00  0.1200E+02
    -31.230  0.0000E+00  0.1200E+02
    -31.047  0.0000E+00  0.1200E+02
    -30.865  0.0000E+00  0.1200E+02
    -30.682  0.0000E+00  0.1200E+02
    -30.500  0.0000E+00  0.1200E+02
    -30.317  0.0000E+00  0.1200E+02
    -30.135  0.0000E+00  0.1200E+02
    -29.953  0.0000E+00  0.1200E+02
    -29.770  0.0000E+00  0.1200E+02
    -29.588  0.0000E+00  0.1200E+02
    -29.405  0.0000E+00  0.1200E+02
    -29.223  0.0000E+00  0.1200E+02
    -29.041  0.0000E+00  0.1200E+02
    -28.858  0.0000E+00  0.1200E+02
    -28.676  0.0000E+00  0.1200E+02
    -28.493  0.0000E+00  0.1200E+02
    -28.311  0.0000E+00  0.1200E+02
    -28.128  0.0000E+00  0.1200E+02
    -27.946  0.0000E+00  0.1200E+02
    -27.764  0.0000E+00  0.1200E+02
    -27.581  0.0000E+00  0.1200E+02
    -27.399  0.0000E+00  0.1200E+02
    -27.216  0.0000E+00  0.1200E+02
    -27.034  0.0000E+00  0.1200E+02
    -26.851  0.0000E+00  0.1200E+02
    -26.669  0.0000E+00  0.1200E+02
    -26.487  0.0000E+00  0.1200E+02
    -26.304  0.0000E+00  0.1200E+02
    -26.122  0.0000E+00  0.1200E+02
    -25.939  0.0000E+00  0.1200E+02
    -25.757  0.0000E+00  0.1200E+02
    -25.575  0.0000E+00  0.1200E+02
    -25.392  0.0000E+00  0.1200E+02
    -25.210  0.0000E+00  0.1200E+02
    -25.027  0.0000E+00  0.1200E+02
    -24.845  0.0000E+00  0.1200E+02
    -24.662  0.0000E+00  0.1200E+02
    -24.480  0.0000E+00  0.1200E+02
    -24.298  0.0000E+00  0.1200E+02
    -24.115  0.0000E+00  0.1200E+02
    -23.933  0.0000E+00  0.1200E+02
    -23.750  0.0000E+00  0.1200E+02
    -23.568  0.0000E+00  0.1200E+02
    -23.386  0.0000E+00  0.1200E+02
    -23.203  0.0000E+00  0.1200E+02
    -23.021  0.0000E+00  0.1200E+02
    -22.838  0.0000E+00  0.1200E+02
    -22.656  0.0000E+00  0.1200E+02
    -22.473  0.0000E+00  0.1200E+02
    -22.291  0.0000E+00  0.1200E+02
    -22.109  0.0000E+00  0.1200E+02
    -21.926  0.0000E+00  0.1200E+02
    -21.744  0.0000E+00  0.1200E+02
    -21.561  0.0000E+00  0.1200E+02
    -21.379  0.0000E+00  0.1200E+02
    -21.197  0.0000E+00  0.1200E+02
    -21.014  0.0000E+00  0.1200E+02
    -20.832  0.0000E+00  0.1200E+02
    -20.649  0.0000E+00  0.1200E+02
    -20.467  0.0000E+00  0.1200E+02
    -20.284  0.0000E+00  0.1200E+02
    -20.102  0.0000E+00  0.1200E+02
    -19.920  0.0000E+00  0.1200E+02
    -19.737  0.0000E+00  0.1200E+02
    -19.555  0.0000E+00  0.1200E+02
    -19.372  0.0000E+00  0.1200E+02
    -19.190  0.0000E+00  0.1200E+02
    -19.007  0.0000E+00  0.1200E+02
    -18.825  0.0000E+00  0.1200E+02
    -18.643  0.0000E+00  0.1200E+02
    -18.460  0.0000E+00  0.1200E+02
    -18.278  0.0000E+00  0.1200E+02
    -18.095  0.0000E+00  0.1200E+02
    -17.913  0.0000E+00  0.1200E+02
    -17.731  0.0000E+00  0.1200E+02
    -17.548  0.0000E+00  0.1200E+02
    -17.366  0.0000E+00  0.1200E+02
    -17.183  0.0000E+00  0.1200E+02
    -17.001  0.0000E+00  0.1200E+02
    -16.818  0.0000E+00  0.1200E+02
    -16.636  0.0000E+00  0.1200E+02
    -16.454  0.0000E+00  0.1200E+02
    -16.271  0.0000E+00  0.1200E+02
    -16.089  0.0000E+00  0.1200E+02
    -15.906  0.0000E+00  0.1200E+02
    -15.724  0.0000E+00  0.1200E+02
    -15.542  0.0000E+00  0.1200E+02
    -15.359  0.0000E+00  0.1200E+02
    -15.177  0.0000E+00  0.1200E+02
    -14.994  0.0000E+00  0.1200E+02
    -14.812  0.0000E+00  0.1200E+02
    -14.629  0.0000E+00  0.1200E+02
    -14.447  0.0000E+00  0.1200E+02
    -14.265  0.0000E+00  0.1200E+02
    -14.082  0.0000E+00  0.1200E+02
    -13.900  0.0000E+00  0.1200E+02
    -13.717  0.0000E+00  0.1200E+02
    -13.535  0.0000E+00  0.1200E+02
    -13.353  0.0000E+00  0.1200E+02
    -13.170  0.0000E+00  0.1200E+02
    -12.988  0.0000E+00  0.1200E+02
    -12.805  0.0000E+00  0.1200E+02
    -12.623  0.1104E+01  0.1201E+02
    -12.440  0.0000E+00  0.1600E+02
    -12.258  0.0000E+00  0.1600E+02
    -12.076  0.0000E+00  0.1600E+02
    -11.893  0.0000E+00  0.1600E+02
    -11.711  0.0000E+00  0.1600E+02
    -11.528  0.0000E+00  0.1600E+02
    -11.346  0.0000E+00  0.1600E+02
    -11.163  0.0000E+00  0.1600E+02
    -10.981  0.0000E+00  0.1600E+02
    -10.799  0.0000E+00  0.1600E+02
    -10.616  0.0000E+00  0.1600E+02
    -10.434  0.0000E+00  0.1600E+02
    -10.251  0.0000E+00  0.1600E+02
    -10.069  0.0000E+00  0.1600E+02
     -9.887  0.0000E+00  0.1600E+02
     -9.704  0.0000E+00  0.1600E+02
     -9.522  0.2280E+02  0.2016E+02
     -9.339  0.1621E+02  0.2791E+02
     -9.157  0.0000E+00  0.2800E+02
     -8.974  0.0000E+00  0.2800E+02
     -8.792  0.0000E+00  0.2800E+02
     -8.610  0.0000E+00  0.2800E+02
     -8.427  0.0000E+00  0.2800E+02
     -8.245  0.0000E+00  0.2800E+02
     -8.062  0.0000E+00  0.2800E+02
     -7.880  0.0000E+00  0.2800E+02
     -7.698  0.0000E+00  0.2800E+02
     -7.515  0.0000E+00  0.2800E+02
     -7.333  0.0000E+00  0.2800E+02
     -7.150  0.0000E+00  0.2800E+02
     -6.968  0.0000E+00  0.2800E+02
     -6.785  0.0000E+00  0.2800E+02
     -6.603  0.0000E+00  0.2800E+02
     -6.421  0.0000E+00  0.2800E+02
     -6.238  0.0000E+00  0.2800E+02
     -6.056  0.0000E+00  0.2800E+02
     -5.873  0.0000E+00  0.2800E+02
     -5.691  0.0000E+00  0.2800E+02
     -5.508  0.1141E+01  0.2805E+02
     -5.326  0.1097E+02  0.2905E+02
     -5.144  0.4854E+02  0.3157E+02
     -4.961  0.0000E+00  0.3200E+02
     -4.779  0.0000E+00  0.3200E+02
     -4.596  0.0000E+00  0.3200E+02
     -4.414  0.0000E+00  0.3200E+02
     -4.232  0.0000E+00  0.3200E+02
     -4.049  0.0000E+00  0.3200E+02
     -3.867  0.0000E+00  0.3200E+02
     -3.684  0.0000E+00  0.3200E+02
     -3.502  0.0000E+00  0.3200E+02
     -3.319  0.0000E+00  0.3200E+02
     -3.137  0.0000E+00  0.3200E+02
     -2.955  0.0000E+00  0.3200E+02
     -2.772  0.0000E+00  0.3200E+02
     -2.590  0.8331E+01  0.3248E+02
     -2.407  0.2070E+02  0.3518E+02
     -2.225  0.2968E+02  0.3842E+02
     -2.043  0.1600E+02  0.4315E+02
     -1.860  0.0000E+00  0.4400E+02
     -1.678  0.0000E+00  0.4400E+02
     -1.495  0.0000E+00  0.4400E+02
     -1.313  0.0000E+00  0.4400E+02
     -1.130  0.0000E+00  0.4400E+02
     -0.948  0.0000E+00  0.4400E+02
     -0.766  0.0000E+00  0.4400E+02
     -0.583  0.0000E+00  0.4400E+02
     -0.401  0.0000E+00  0.4400E+02
     -0.218  0.1568E+02  0.4497E+02
     -0.036  0.1701E+02  0.4800E+02
      0.146  0.7108E+01  0.5114E+02
      0.329  0.6253E+01  0.5219E+02
      0.511  0.6397E+01  0.5378E+02
      0.694  0.3031E+01  0.5587E+02
      0.876  0.1807E+02  0.5691E+02
      1.059  0.3834E+01  0.5986E+02
      1.241  0.1244E+02  0.6256E+02
      1.423  0.3999E+01  0.6413E+02
      1.606  0.1460E+02  0.6666E+02
      1.788  0.8522E+01  0.6959E+02
      1.971  0.2147E+02  0.7274E+02
      2.153  0.7751E+01  0.7568E+02
      2.336  0.0000E+00  0.7600E+02
      2.518  0.0000E+00  0.7600E+02
      2.700  0.0000E+00  0.7600E+02
      2.883  0.0000E+00  0.7600E+02
      3.065  0.0000E+00  0.7600E+02
      3.248  0.0000E+00  0.7600E+02
      3.430  0.0000E+00  0.7600E+02
      3.612  0.0000E+00  0.7600E+02
      3.795  0.0000E+00  0.7600E+02
      3.977  0.0000E+00  0.7600E+02
      4.160  0.0000E+00  0.7600E+02
      4.342  0.0000E+00  0.7600E+02
      4.525  0.0000E+00  0.7600E+02
      4.707  0.0000E+00  0.7600E+02
      4.889  0.0000E+00  0.7600E+02
      5.072  0.2576E+01  0.7620E+02
      5.254  0.3053E+01  0.7672E+02
      5.437  0.4791E+01  0.7771E+02
      5.619  0.5440E+01  0.7867E+02
      5.801  0.3207E+01  0.7946E+02
      5.984  0.1906E+01  0.7993E+02
      6.166  0.1383E+01  0.8014E+02
      6.349  0.1184E+02  0.8067E+02
      6.531  0.1692E+02  0.8351E+02
      6.714  0.9695E+01  0.8471E+02
      6.896  0.1129E+02  0.8747E+02
      7.078  0.1524E+02  0.8941E+02
      7.261  0.3410E+01  0.9190E+02
      7.443  0.0000E+00  0.9200E+02
      7.626  0.0000E+00  0.9200E+02
      7.808  0.0000E+00  0.9200E+02
      7.990  0.7734E-01  0.9200E+02
      8.173  0.1054E+02  0.9329E+02
      8.355  0.0000E+00  0.9400E+02
      8.538  0.9760E+01  0.9458E+02
      8.720  0.2516E+01  0.9591E+02
      8.903  0.0000E+00  0.9600E+02
      9.085  0.0000E+00  0.9600E+02
      9.267  0.0000E+00  0.9600E+02
      9.450  0.0000E+00  0.9600E+02
      9.632  0.0000E+00  0.9600E+02
      9.815  0.0000E+00  0.9600E+02
      9.997  0.0000E+00  0.9600E+02
     10.180  0.0000E+00  0.9600E+02
     10.362  0.0000E+00  0.9600E+02
     10.544  0.0000E+00  0.9600E+02
     10.727  0.0000E+00  0.9600E+02
     10.909  0.0000E+00  0.9600E+02
     11.092  0.0000E+00  0.9600E+02
     11.274  0.0000E+00  0.9600E+02
