       N       E                     dE             d eps       ncg     rms          rms(c)
DAV:   1     0.496805710675E+03    0.49681E+03   -0.28557E+04   776   0.130E+03
DAV:   2    -0.130118124776E+02   -0.50982E+03   -0.48586E+03   936   0.310E+02
DAV:   3    -0.724311096445E+02   -0.59419E+02   -0.59073E+02  1064   0.958E+01
DAV:   4    -0.792800601769E+02   -0.68490E+01   -0.68294E+01  1400   0.306E+01
DAV:   5    -0.801242227667E+02   -0.84416E+00   -0.84403E+00  1136   0.730E+00    0.217E+01
RMM:   6    -0.777867362416E+02    0.23375E+01   -0.70112E+00   898   0.611E+00    0.146E+01
RMM:   7    -0.773707571194E+02    0.41598E+00   -0.20121E+00   982   0.371E+00    0.501E+00
RMM:   8    -0.773063272977E+02    0.64430E-01   -0.23870E-01  1029   0.145E+00    0.491E-01
RMM:   9    -0.773007834901E+02    0.55438E-02   -0.24915E-02  1141   0.472E-01    0.286E-01
RMM:  10    -0.773013152405E+02   -0.53175E-03   -0.67310E-03  1218   0.202E-01    0.112E-01
RMM:  11    -0.773014729711E+02   -0.15773E-03   -0.19815E-03  1210   0.106E-01    0.225E-02
RMM:  12    -0.773015417337E+02   -0.68763E-04   -0.80532E-04  1074   0.627E-02    0.135E-02
RMM:  13    -0.773015568687E+02   -0.15135E-04   -0.20091E-04   779   0.414E-02    0.676E-03
RMM:  14    -0.773015604451E+02   -0.35764E-05   -0.67369E-05   782   0.367E-02
   1 F= -.77301560E+02 E0= -.77301560E+02  d E =0.000000E+00
