<?xml version="1.0" encoding="ISO-8859-1"?>
<modeling>
 <generator>
  <i name="program" type="string">vasp </i>
  <i name="version" type="string">5.4.4.18Apr17-6-g9f103f2a35  </i>
  <i name="subversion" type="string">(build Feb 28 2020 14:15:47) complex            parallel </i>
  <i name="platform" type="string">LinuxIFC </i>
  <i name="date" type="string">2022 08 06 </i>
  <i name="time" type="string">22:02:45 </i>
 </generator>
 <incar>
  <i type="int" name="ISTART">     0</i>
  <i type="string" name="PREC">accurate</i>
  <i type="string" name="ALGO"> FAST</i>
  <i type="int" name="ISPIN">     1</i>
  <i type="int" name="ICHARG">     2</i>
  <i type="int" name="INIWAV">     1</i>
  <i type="int" name="NELM">   100</i>
  <i type="int" name="IBRION">     2</i>
  <i name="EDIFF">      0.00002000</i>
  <i name="EDIFFG">      0.00020000</i>
  <i type="int" name="NSW">     0</i>
  <i type="int" name="ISIF">     7</i>
  <i name="ENCUT">    420.00000000</i>
  <i type="string" name="LREAL"> AUTO</i>
  <i type="int" name="ISMEAR">    -5</i>
  <i type="logical" name="LWAVE"> F  </i>
  <i type="logical" name="LCHARG"> F  </i>
  <v type="int" name="KPOINT_BSE">    -1     0     0     0</v>
  <i type="int" name="NELM">   100</i>
 </incar>
 <structure name="primitive_cell" >
  <crystal>
   <varray name="basis" >
    <v>       7.58022417       0.00000000       0.00000000 </v>
    <v>       0.00000000       6.33347261       0.00000000 </v>
    <v>       0.00000000       0.00000000       6.01079077 </v>
   </varray>
   <i name="volume">    288.57290863 </i>
   <varray name="rec_basis" >
    <v>       0.13192222       0.00000000       0.00000000 </v>
    <v>       0.00000000       0.15789126       0.00000000 </v>
    <v>       0.00000000       0.00000000       0.16636746 </v>
   </varray>
  </crystal>
  <varray name="positions" >
   <v>       0.00000000       0.31932238       0.30048470 </v>
   <v>       0.00000000      -0.38478136       0.16918898 </v>
   <v>      -0.22019414       0.16340822       0.19769474 </v>
   <v>       0.22019414       0.16340822       0.19769474 </v>
   <v>       0.00000000       0.32877446      -0.36049895 </v>
   <v>       0.00000000      -0.34256676      -0.21257027 </v>
   <v>      -0.24405485      -0.18670381       0.30117514 </v>
   <v>       0.24405485      -0.18670381       0.30117514 </v>
   <v>      -0.25594515       0.18670381      -0.19882486 </v>
   <v>       0.25594515       0.18670381      -0.19882486 </v>
   <v>       0.50000000       0.34256676       0.28742973 </v>
   <v>       0.50000000       0.38478136      -0.33081102 </v>
   <v>       0.27980586      -0.16340822      -0.30230526 </v>
   <v>      -0.27980586      -0.16340822      -0.30230526 </v>
   <v>       0.50000000      -0.32877446       0.13950105 </v>
   <v>       0.50000000      -0.31932238      -0.19951530 </v>
  </varray>
 </structure>
 <varray name="primitive_index" >
  <v type="int" >        1 </v>
  <v type="int" >        7 </v>
  <v type="int" >        6 </v>
  <v type="int" >        3 </v>
  <v type="int" >        9 </v>
  <v type="int" >       11 </v>
  <v type="int" >       15 </v>
  <v type="int" >       14 </v>
  <v type="int" >       16 </v>
  <v type="int" >       13 </v>
  <v type="int" >       12 </v>
  <v type="int" >        8 </v>
  <v type="int" >        4 </v>
  <v type="int" >        5 </v>
  <v type="int" >       10 </v>
  <v type="int" >        2 </v>
 </varray>
 <kpoints>
  <generation param="Monkhorst-Pack">
   <v type="int" name="divisions">       3        3        3 </v>
   <v name="usershift">      0.00000000       0.00000000       0.00000000 </v>
   <v name="genvec1">      0.33333333       0.00000000       0.00000000 </v>
   <v name="genvec2">      0.00000000       0.33333333       0.00000000 </v>
   <v name="genvec3">      0.00000000       0.00000000       0.33333333 </v>
   <v name="shift">      0.00000000       0.00000000       0.00000000 </v>
  </generation>
  <varray name="kpointlist" >
   <v>       0.00000000       0.00000000       0.00000000 </v>
   <v>       0.33333333       0.00000000       0.00000000 </v>
   <v>       0.00000000       0.33333333       0.00000000 </v>
   <v>       0.33333333       0.33333333       0.00000000 </v>
   <v>       0.00000000       0.00000000       0.33333333 </v>
   <v>       0.33333333       0.00000000       0.33333333 </v>
   <v>       0.00000000       0.33333333       0.33333333 </v>
   <v>       0.33333333       0.33333333       0.33333333 </v>
  </varray>
  <varray name="weights" >
   <v>       0.03703704 </v>
   <v>       0.07407407 </v>
   <v>       0.07407407 </v>
   <v>       0.14814815 </v>
   <v>       0.07407407 </v>
   <v>       0.14814815 </v>
   <v>       0.14814815 </v>
   <v>       0.29629630 </v>
  </varray>
  <varray name="tetrahedronlist"  type="int" >
   <v type="int" >        2        1        2        4        5 </v>
   <v type="int" >        2        1        3        4        5 </v>
   <v type="int" >        2        3        4        5        7 </v>
   <v type="int" >        2        2        4        5        6 </v>
   <v type="int" >        2        4        5        6        8 </v>
   <v type="int" >        2        4        5        7        8 </v>
   <v type="int" >        2        2        2        4        6 </v>
   <v type="int" >        2        2        4        4        6 </v>
   <v type="int" >        2        4        4        6        8 </v>
   <v type="int" >        2        2        4        6        6 </v>
   <v type="int" >        2        4        6        6        8 </v>
   <v type="int" >        2        4        6        8        8 </v>
   <v type="int" >        2        1        2        3        6 </v>
   <v type="int" >        2        2        3        4        6 </v>
   <v type="int" >        2        3        4        6        8 </v>
   <v type="int" >        2        1        3        5        6 </v>
   <v type="int" >        2        3        5        6        7 </v>
   <v type="int" >        2        3        6        7        8 </v>
   <v type="int" >        2        3        4        4        7 </v>
   <v type="int" >        2        3        3        4        7 </v>
   <v type="int" >        2        3        4        7        7 </v>
   <v type="int" >        2        4        4        7        8 </v>
   <v type="int" >        2        4        7        8        8 </v>
   <v type="int" >        2        4        7        7        8 </v>
   <v type="int" >        4        4        4        4        8 </v>
   <v type="int" >        4        4        4        8        8 </v>
   <v type="int" >        4        4        8        8        8 </v>
   <v type="int" >        2        3        3        4        8 </v>
   <v type="int" >        2        3        4        4        8 </v>
   <v type="int" >        2        3        4        8        8 </v>
   <v type="int" >        2        3        3        7        8 </v>
   <v type="int" >        2        3        7        7        8 </v>
   <v type="int" >        2        3        7        8        8 </v>
   <v type="int" >        2        2        3        4        7 </v>
   <v type="int" >        2        1        2        3        7 </v>
   <v type="int" >        2        1        2        5        7 </v>
   <v type="int" >        2        2        4        7        8 </v>
   <v type="int" >        2        2        6        7        8 </v>
   <v type="int" >        2        2        5        6        7 </v>
   <v type="int" >        2        2        4        4        8 </v>
   <v type="int" >        2        2        2        4        8 </v>
   <v type="int" >        2        2        2        6        8 </v>
   <v type="int" >        2        2        4        8        8 </v>
   <v type="int" >        2        2        6        8        8 </v>
   <v type="int" >        2        2        6        6        8 </v>
   <v type="int" >        2        1        3        4        8 </v>
   <v type="int" >        2        1        2        4        8 </v>
   <v type="int" >        2        1        2        6        8 </v>
   <v type="int" >        2        1        3        7        8 </v>
   <v type="int" >        2        1        5        7        8 </v>
   <v type="int" >        2        1        5        6        8 </v>
   <v type="int" >        2        5        5        6        8 </v>
   <v type="int" >        2        5        5        7        8 </v>
   <v type="int" >        2        5        7        7        8 </v>
   <v type="int" >        2        5        6        6        8 </v>
   <v type="int" >        2        5        6        8        8 </v>
   <v type="int" >        2        5        7        8        8 </v>
   <v type="int" >        4        6        6        6        8 </v>
   <v type="int" >        4        6        6        8        8 </v>
   <v type="int" >        4        6        8        8        8 </v>
   <v type="int" >        2        5        6        6        7 </v>
   <v type="int" >        2        6        6        7        8 </v>
   <v type="int" >        2        6        7        8        8 </v>
   <v type="int" >        2        5        5        6        7 </v>
   <v type="int" >        2        5        6        7        7 </v>
   <v type="int" >        2        6        7        7        8 </v>
   <v type="int" >        4        7        7        8        8 </v>
   <v type="int" >        4        7        7        7        8 </v>
   <v type="int" >        4        7        8        8        8 </v>
   <v type="int" >        6        8        8        8        8 </v>
  </varray>
  <i name="volumeweight">      0.00617284 </i>
 </kpoints>
 <parameters>
  <separator name="general" >
   <i type="string" name="SYSTEM">unknown system</i>
   <i type="logical" name="LCOMPAT"> F  </i>
  </separator>
  <separator name="electronic" >
   <i type="string" name="PREC">accura</i>
   <i name="ENMAX">    420.00000000</i>
   <i name="ENAUG">    628.94500000</i>
   <i name="EDIFF">      0.00002000</i>
   <i type="int" name="IALGO">    68</i>
   <i type="int" name="IWAVPR">    10</i>
   <i type="int" name="NBANDS">    48</i>
   <i name="NELECT">     76.00000000</i>
   <i type="int" name="TURBO">     0</i>
   <i type="int" name="IRESTART">     0</i>
   <i type="int" name="NREBOOT">     0</i>
   <i type="int" name="NMIN">     0</i>
   <i name="EREF">      0.00000000</i>
   <separator name="electronic smearing" >
    <i type="int" name="ISMEAR">    -5</i>
    <i name="SIGMA">      0.20000000</i>
    <i name="KSPACING">      0.50000000</i>
    <i type="logical" name="KGAMMA"> T  </i>
   </separator>
   <separator name="electronic projectors" >
    <i type="logical" name="LREAL"> T  </i>
    <v name="ROPT">     -0.00025000     -0.00025000     -0.00025000</v>
    <i type="int" name="LMAXPAW">  -100</i>
    <i type="int" name="LMAXMIX">     2</i>
    <i type="logical" name="NLSPLINE"> F  </i>
   </separator>
   <separator name="electronic startup" >
    <i type="int" name="ISTART">     0</i>
    <i type="int" name="ICHARG">     2</i>
    <i type="int" name="INIWAV">     1</i>
   </separator>
   <separator name="electronic spin" >
    <i type="int" name="ISPIN">     1</i>
    <i type="logical" name="LNONCOLLINEAR"> F  </i>
    <v name="MAGMOM">      1.00000000      1.00000000      1.00000000      1.00000000      1.00000000      1.00000000      1.00000000      1.00000000      1.00000000      1.00000000      1.00000000      1.00000000      1.00000000      1.00000000      1.00000000      1.00000000</v>
    <i name="NUPDOWN">     -1.00000000</i>
    <i type="logical" name="LSORBIT"> F  </i>
    <v name="SAXIS">      0.00000000      0.00000000      1.00000000</v>
    <i type="logical" name="LSPIRAL"> F  </i>
    <v name="QSPIRAL">      0.00000000      0.00000000      0.00000000</v>
    <i type="logical" name="LZEROZ"> F  </i>
   </separator>
   <separator name="electronic exchange-correlation" >
    <i type="logical" name="LASPH"> F  </i>
    <i type="logical" name="LMETAGGA"> F  </i>
   </separator>
   <separator name="electronic convergence" >
    <i type="int" name="NELM">   100</i>
    <i type="int" name="NELMDL">    -5</i>
    <i type="int" name="NELMIN">     2</i>
    <i name="ENINI">    420.00000000</i>
    <separator name="electronic convergence detail" >
     <i type="logical" name="LDIAG"> T  </i>
     <i type="logical" name="LSUBROT"> F  </i>
     <i name="WEIMIN">      0.00000000</i>
     <i name="EBREAK">      0.00000010</i>
     <i name="DEPER">      0.30000000</i>
     <i type="int" name="NRMM">     4</i>
     <i name="TIME">      0.40000000</i>
    </separator>
   </separator>
   <separator name="electronic mixer" >
    <i name="AMIX">      0.40000000</i>
    <i name="BMIX">      1.00000000</i>
    <i name="AMIN">      0.10000000</i>
    <i name="AMIX_MAG">      1.60000000</i>
    <i name="BMIX_MAG">      1.00000000</i>
    <separator name="electronic mixer details" >
     <i type="int" name="IMIX">     4</i>
     <i type="logical" name="MIXFIRST"> F  </i>
     <i type="int" name="MAXMIX">   -45</i>
     <i name="WC">    100.00000000</i>
     <i type="int" name="INIMIX">     1</i>
     <i type="int" name="MIXPRE">     1</i>
     <i type="int" name="MREMOVE">     5</i>
    </separator>
   </separator>
   <separator name="electronic dipolcorrection" >
    <i type="logical" name="LDIPOL"> F  </i>
    <i type="logical" name="LMONO"> F  </i>
    <i type="int" name="IDIPOL">     0</i>
    <i name="EPSILON">      1.00000000</i>
    <v name="DIPOL">   -100.00000000   -100.00000000   -100.00000000</v>
    <i name="EFIELD">      0.00000000</i>
   </separator>
  </separator>
  <separator name="grids" >
   <i type="int" name="NGX">    54</i>
   <i type="int" name="NGY">    42</i>
   <i type="int" name="NGZ">    40</i>
   <i type="int" name="NGXF">   108</i>
   <i type="int" name="NGYF">    84</i>
   <i type="int" name="NGZF">    80</i>
   <i type="logical" name="ADDGRID"> F  </i>
  </separator>
  <separator name="ionic" >
   <i type="int" name="NSW">     0</i>
   <i type="int" name="IBRION">    -1</i>
   <i type="int" name="MDALGO">     0</i>
   <i type="int" name="ISIF">     7</i>
   <i name="PSTRESS">      0.00000000</i>
   <i name="EDIFFG">      0.00020000</i>
   <i type="int" name="NFREE">     1</i>
   <i name="POTIM">      0.50000000</i>
   <i name="SMASS">     -3.00000000</i>
   <i name="SCALEE">      1.00000000</i>
  </separator>
  <separator name="ionic md" >
   <i name="TEBEG">      0.00010000</i>
   <i name="TEEND">      0.00010000</i>
   <i type="int" name="NBLOCK">     1</i>
   <i type="int" name="KBLOCK">     1</i>
   <i type="int" name="NPACO">   256</i>
   <i name="APACO">     16.00000000</i>
  </separator>
  <separator name="symmetry" >
   <i type="int" name="ISYM">     2</i>
   <i name="SYMPREC">      0.00001000</i>
  </separator>
  <separator name="dos" >
   <i type="int" name="LORBIT">     0</i>
   <v name="RWIGS">     -1.00000000     -1.00000000     -1.00000000</v>
   <i type="int" name="NEDOS">   301</i>
   <i name="EMIN">     10.00000000</i>
   <i name="EMAX">    -10.00000000</i>
   <i name="EFERMI">      0.00000000</i>
  </separator>
  <separator name="writing" >
   <i type="int" name="NWRITE">     2</i>
   <i type="logical" name="LWAVE"> F  </i>
   <i type="logical" name="LDOWNSAMPLE"> F  </i>
   <i type="logical" name="LCHARG"> F  </i>
   <i type="logical" name="LPARD"> F  </i>
   <i type="logical" name="LVTOT"> F  </i>
   <i type="logical" name="LVHAR"> F  </i>
   <i type="logical" name="LELF"> F  </i>
   <i type="logical" name="LOPTICS"> F  </i>
   <v name="STM">      0.00000000      0.00000000      0.00000000      0.00000000      0.00000000      0.00000000      0.00000000</v>
  </separator>
  <separator name="performance" >
   <i type="int" name="NPAR">     4</i>
   <i type="int" name="NSIM">     4</i>
   <i type="int" name="NBLK">    -1</i>
   <i type="logical" name="LPLANE"> T  </i>
   <i type="logical" name="LSCALAPACK"> T  </i>
   <i type="logical" name="LSCAAWARE"> F  </i>
   <i type="logical" name="LSCALU"> F  </i>
   <i type="logical" name="LASYNC"> F  </i>
   <i type="logical" name="LORBITALREAL"> F  </i>
  </separator>
  <separator name="miscellaneous" >
   <i type="int" name="IDIOT">     3</i>
   <i type="int" name="ISPECIAL">     0</i>
   <i type="logical" name="LMUSIC"> F  </i>
   <v name="POMASS">     30.97400000     32.06600000      7.01000000</v>
   <v name="DARWINR">      0.00000000      0.00000000      0.00000000</v>
   <v name="DARWINV">      1.00000000      1.00000000      1.00000000</v>
   <i type="logical" name="LCORR"> T  </i>
  </separator>
  <i type="logical" name="GGA_COMPAT"> T  </i>
  <i type="logical" name="LBERRY"> F  </i>
  <i type="int" name="ICORELEVEL">     0</i>
  <i type="logical" name="LDAU"> F  </i>
  <i type="int" name="I_CONSTRAINED_M">     0</i>
  <separator name="electronic exchange-correlation" >
   <i type="string" name="GGA">--</i>
   <i type="int" name="VOSKOWN">     0</i>
   <i type="logical" name="LHFCALC"> F  </i>
   <i type="string" name="PRECFOCK"></i>
   <i type="logical" name="LSYMGRAD"> F  </i>
   <i type="logical" name="LHFONE"> F  </i>
   <i type="logical" name="LRHFCALC"> F  </i>
   <i type="logical" name="LTHOMAS"> F  </i>
   <i type="logical" name="LMODELHF"> F  </i>
   <i name="ENCUT4O">     -1.00000000</i>
   <i type="int" name="EXXOEP">     0</i>
   <i type="int" name="FOURORBIT">     0</i>
   <i name="AEXX">      0.00000000</i>
   <i name="HFALPHA">      0.00000000</i>
   <i name="MCALPHA">      0.00000000</i>
   <i name="ALDAX">      1.00000000</i>
   <i name="AGGAX">      1.00000000</i>
   <i name="ALDAC">      1.00000000</i>
   <i name="AGGAC">      1.00000000</i>
   <i type="int" name="NKREDX">     1</i>
   <i type="int" name="NKREDY">     1</i>
   <i type="int" name="NKREDZ">     1</i>
   <i type="logical" name="SHIFTRED"> F  </i>
   <i type="logical" name="ODDONLY"> F  </i>
   <i type="logical" name="EVENONLY"> F  </i>
   <i type="int" name="LMAXFOCK">     0</i>
   <i type="int" name="NMAXFOCKAE">     0</i>
   <i type="logical" name="LFOCKAEDFT"> F  </i>
   <i name="HFSCREEN">      0.00000000</i>
   <i name="HFSCREENC">      0.00000000</i>
   <i type="int" name="NBANDSGWLOW">     0</i>
  </separator>
  <separator name="vdW DFT" >
   <i type="logical" name="LUSE_VDW"> F  </i>
   <i name="Zab_VDW">     -0.84910000</i>
   <i name="PARAM1">      0.12340000</i>
   <i name="PARAM2">      1.00000000</i>
   <i name="PARAM3">      0.00000000</i>
  </separator>
  <separator name="model GW" >
   <i type="int" name="MODEL_GW">     0</i>
   <i name="MODEL_EPS0">     10.82148407</i>
   <i name="MODEL_ALPHA">      1.00000000</i>
  </separator>
  <separator name="linear response parameters" >
   <i type="logical" name="LEPSILON"> F  </i>
   <i type="logical" name="LRPA"> F  </i>
   <i type="logical" name="LNABLA"> F  </i>
   <i type="logical" name="LVEL"> F  </i>
   <i type="int" name="KINTER">     0</i>
   <i name="CSHIFT">      0.10000000</i>
   <i name="OMEGAMAX">     -1.00000000</i>
   <i name="DEG_THRESHOLD">      0.00200000</i>
   <i name="RTIME">     -0.10000000</i>
   <i name="WPLASMAI">      0.00000000</i>
   <v name="DFIELD">      0.00000000      0.00000000      0.00000000</v>
   <v name="WPLASMA">      0.00000000      0.00000000      0.00000000      0.00000000      0.00000000      0.00000000      0.00000000      0.00000000      0.00000000</v>
  </separator>
  <separator name="orbital magnetization" >
   <i type="logical" name="NUCIND"> F  </i>
   <v name="MAGPOS">      0.00000000      0.00000000      0.00000000</v>
   <i type="logical" name="LNICSALL"> T  </i>
   <i type="logical" name="ORBITALMAG"> F  </i>
   <i type="logical" name="LMAGBLOCH"> F  </i>
   <i type="logical" name="LCHIMAG"> F  </i>
   <i type="logical" name="LGAUGE"> T  </i>
   <i type="int" name="MAGATOM">     0</i>
   <v name="MAGDIPOL">      0.00000000      0.00000000      0.00000000</v>
   <v name="AVECCONST">      0.00000000      0.00000000      0.00000000</v>
  </separator>
  <separator name="response functions" >
   <i type="logical" name="LADDER"> F  </i>
   <i type="logical" name="LRPAFORCE"> F  </i>
   <i type="logical" name="LFXC"> F  </i>
   <i type="logical" name="LHARTREE"> T  </i>
   <i type="int" name="IBSE">     0</i>
   <v type="int" name="KPOINT">    -1     0     0     0</v>
   <i type="logical" name="LTCTE"> F  </i>
   <i type="logical" name="LTETE"> F  </i>
   <i type="logical" name="LTRIPLET"> F  </i>
   <i type="logical" name="LFXCEPS"> F  </i>
   <i type="logical" name="LFXHEG"> F  </i>
   <i type="int" name="NATURALO">     2</i>
   <i type="logical" name="L2ORDER"> F  </i>
   <i type="logical" name="LMP2LT"> F  </i>
   <i type="logical" name="LUSEW"> F  </i>
   <i name="ENCUTGW">     -2.00000000</i>
   <i name="ENCUTGWSOFT">     -2.00000000</i>
   <i name="ENCUTLF">     -1.00000000</i>
   <i type="int" name="LMAXMP2">    -1</i>
   <i name="SCISSOR">      0.00000000</i>
   <i type="int" name="NOMEGA">     0</i>
   <i type="int" name="NOMEGAR">     0</i>
   <i type="int" name="NBANDSGW">    -1</i>
   <i type="int" name="NBANDSO">    -1</i>
   <i type="int" name="NBANDSV">    -1</i>
   <i type="int" name="NELM">   100</i>
   <i type="int" name="NELMHF">     1</i>
   <i type="int" name="DIM">     3</i>
   <i type="int" name="ANTIRES">     0</i>
   <i name="OMEGAMAX">    -30.00000000</i>
   <i name="OMEGAMIN">    -30.00000000</i>
   <i name="OMEGATL">   -200.00000000</i>
   <i type="int" name="OMEGAGRID">   140</i>
   <i name="CSHIFT">     -0.10000000</i>
   <i type="logical" name="SELFENERGY"> F  </i>
   <i type="logical" name="LSPECTRAL"> F  </i>
   <i type="logical" name="LSPECTRALGW"> F  </i>
   <i type="logical" name="LSINGLES"> F  </i>
   <i type="logical" name="LFERMIGW"> F  </i>
   <i type="logical" name="ODDONLYGW"> F  </i>
   <i type="logical" name="EVENONLYGW"> F  </i>
   <i type="int" name="NKREDLFX">     1</i>
   <i type="int" name="NKREDLFY">     1</i>
   <i type="int" name="NKREDLFZ">     1</i>
   <i type="int" name="MAXMEM">  2800</i>
   <i type="int" name="TELESCOPE">     0</i>
   <i type="int" name="TAUPAR">     1</i>
   <i type="int" name="OMEGAPAR">    -1</i>
   <i name="LAMBDA">      1.00000000</i>
  </separator>
  <separator name="External order field" >
   <i name="OFIELD_KAPPA">      0.00000000</i>
   <v name="OFIELD_K">      0.00000000      0.00000000      0.00000000</v>
   <i name="OFIELD_Q6_NEAR">      0.00000000</i>
   <i name="OFIELD_Q6_FAR">      0.00000000</i>
   <i name="OFIELD_A">      0.00000000</i>
  </separator>
 </parameters>
 <atominfo>
  <atoms>      16 </atoms>
  <types>       3 </types>
  <array name="atoms" >
   <dimension dim="1">ion</dimension>
   <field type="string">element</field>
   <field type="int">atomtype</field>
   <set>
    <rc><c>P </c><c>   1</c></rc>
    <rc><c>P </c><c>   1</c></rc>
    <rc><c>S </c><c>   2</c></rc>
    <rc><c>S </c><c>   2</c></rc>
    <rc><c>S </c><c>   2</c></rc>
    <rc><c>S </c><c>   2</c></rc>
    <rc><c>S </c><c>   2</c></rc>
    <rc><c>S </c><c>   2</c></rc>
    <rc><c>S </c><c>   2</c></rc>
    <rc><c>S </c><c>   2</c></rc>
    <rc><c>Li</c><c>   3</c></rc>
    <rc><c>Li</c><c>   3</c></rc>
    <rc><c>Li</c><c>   3</c></rc>
    <rc><c>Li</c><c>   3</c></rc>
    <rc><c>Li</c><c>   3</c></rc>
    <rc><c>Li</c><c>   3</c></rc>
   </set>
  </array>
  <array name="atomtypes" >
   <dimension dim="1">type</dimension>
   <field type="int">atomspertype</field>
   <field type="string">element</field>
   <field>mass</field>
   <field>valence</field>
   <field type="string">pseudopotential</field>
   <set>
    <rc><c>   2</c><c>P </c><c>     30.97400000</c><c>      5.00000000</c><c>  PAW P 26Mar2009                       </c></rc>
    <rc><c>   8</c><c>S </c><c>     32.06600000</c><c>      6.00000000</c><c>  PAW S 27Mar2009                       </c></rc>
    <rc><c>   6</c><c>Li</c><c>      7.01000000</c><c>      3.00000000</c><c>  PAW Li_sv 10Sep2004                   </c></rc>
   </set>
  </array>
 </atominfo>
 <structure name="initialpos" >
  <crystal>
   <varray name="basis" >
    <v>       7.58022417       0.00000000       0.00000000 </v>
    <v>       0.00000000       6.33347261       0.00000000 </v>
    <v>       0.00000000       0.00000000       6.01079077 </v>
   </varray>
   <i name="volume">    288.57290863 </i>
   <varray name="rec_basis" >
    <v>       0.13192222       0.00000000       0.00000000 </v>
    <v>       0.00000000       0.15789126       0.00000000 </v>
    <v>       0.00000000       0.00000000       0.16636746 </v>
   </varray>
  </crystal>
  <varray name="positions" >
   <v>       0.00000000       0.31932238       0.30048470 </v>
   <v>       0.50000000       0.68067762       0.80048470 </v>
   <v>       0.22019414       0.16340822       0.19769474 </v>
   <v>       0.27980586       0.83659178       0.69769474 </v>
   <v>       0.72019414       0.83659178       0.69769474 </v>
   <v>       0.77980586       0.16340822       0.19769474 </v>
   <v>       0.00000000       0.61521864       0.16918898 </v>
   <v>       0.50000000       0.38478136       0.66918898 </v>
   <v>       0.00000000       0.32877446       0.63950105 </v>
   <v>       0.50000000       0.67122554       0.13950105 </v>
   <v>       0.00000000       0.65743324       0.78742973 </v>
   <v>       0.50000000       0.34256676       0.28742973 </v>
   <v>       0.25594515       0.18670381       0.80117514 </v>
   <v>       0.24405485       0.81329619       0.30117514 </v>
   <v>       0.75594515       0.81329619       0.30117514 </v>
   <v>       0.74405485       0.18670381       0.80117514 </v>
  </varray>
 </structure>
 <calculation>
  <scstep>
   <time name="dav">    0.19    0.20</time>
   <time name="total">    0.20    0.22</time>
   <energy>
    <i name="alphaZ">     68.38118764 </i>
    <i name="ewald">  -2729.81342405 </i>
    <i name="hartreedc">   -618.85386131 </i>
    <i name="XCdc">    181.79231265 </i>
    <i name="pawpsdc">   2494.22442938 </i>
    <i name="pawaedc">  -2541.12215007 </i>
    <i name="eentropy">      0.00000000 </i>
    <i name="bandstr">   -126.89060734 </i>
    <i name="atom">   3769.08782378 </i>
    <i name="e_fr_energy">    496.80571067 </i>
    <i name="e_wo_entrp">    496.80571067 </i>
    <i name="e_0_energy">    496.80571067 </i>
   </energy>
  </scstep>
  <scstep>
   <time name="dav">    0.20    0.20</time>
   <time name="total">    0.20    0.20</time>
   <energy>
    <i name="e_fr_energy">    -13.01181248 </i>
    <i name="e_wo_entrp">    -13.01181248 </i>
    <i name="e_0_energy">    -13.01181248 </i>
   </energy>
  </scstep>
  <scstep>
   <time name="dav">    0.22    0.22</time>
   <time name="total">    0.22    0.22</time>
   <energy>
    <i name="e_fr_energy">    -72.43110964 </i>
    <i name="e_wo_entrp">    -72.43110964 </i>
    <i name="e_0_energy">    -72.43110964 </i>
   </energy>
  </scstep>
  <scstep>
   <time name="dav">    0.27    0.27</time>
   <time name="total">    0.27    0.27</time>
   <energy>
    <i name="e_fr_energy">    -79.28006018 </i>
    <i name="e_wo_entrp">    -79.28006018 </i>
    <i name="e_0_energy">    -79.28006018 </i>
   </energy>
  </scstep>
  <scstep>
   <time name="dav">    0.23    0.24</time>
   <time name="total">    0.25    0.25</time>
   <energy>
    <i name="e_fr_energy">    -80.12422277 </i>
    <i name="e_wo_entrp">    -80.12422277 </i>
    <i name="e_0_energy">    -80.12422277 </i>
   </energy>
  </scstep>
  <scstep>
   <time name="diag">    0.05    0.05</time>
   <time name="diis">    0.08    0.08</time>
   <time name="orth">    0.01    0.01</time>
   <time name="total">    0.16    0.16</time>
   <energy>
    <i name="e_fr_energy">    -77.78673624 </i>
    <i name="e_wo_entrp">    -77.78673624 </i>
    <i name="e_0_energy">    -77.78673624 </i>
   </energy>
  </scstep>
  <scstep>
   <time name="diag">    0.05    0.05</time>
   <time name="diis">    0.09    0.09</time>
   <time name="orth">    0.01    0.01</time>
   <time name="total">    0.17    0.17</time>
   <energy>
    <i name="e_fr_energy">    -77.37075712 </i>
    <i name="e_wo_entrp">    -77.37075712 </i>
    <i name="e_0_energy">    -77.37075712 </i>
   </energy>
  </scstep>
  <scstep>
   <time name="diag">    0.05    0.05</time>
   <time name="diis">    0.10    0.10</time>
   <time name="orth">    0.01    0.01</time>
   <time name="total">    0.17    0.17</time>
   <energy>
    <i name="e_fr_energy">    -77.30632730 </i>
    <i name="e_wo_entrp">    -77.30632730 </i>
    <i name="e_0_energy">    -77.30632730 </i>
   </energy>
  </scstep>
  <scstep>
   <time name="diag">    0.05    0.05</time>
   <time name="diis">    0.10    0.10</time>
   <time name="orth">    0.01    0.01</time>
   <time name="total">    0.18    0.18</time>
   <energy>
    <i name="e_fr_energy">    -77.30078349 </i>
    <i name="e_wo_entrp">    -77.30078349 </i>
    <i name="e_0_energy">    -77.30078349 </i>
   </energy>
  </scstep>
  <scstep>
   <time name="diag">    0.05    0.05</time>
   <time name="diis">    0.11    0.11</time>
   <time name="orth">    0.01    0.01</time>
   <time name="total">    0.19    0.19</time>
   <energy>
    <i name="e_fr_energy">    -77.30131524 </i>
    <i name="e_wo_entrp">    -77.30131524 </i>
    <i name="e_0_energy">    -77.30131524 </i>
   </energy>
  </scstep>
  <scstep>
   <time name="diag">    0.05    0.05</time>
   <time name="diis">    0.11    0.11</time>
   <time name="orth">    0.01    0.01</time>
   <time name="total">    0.19    0.19</time>
   <energy>
    <i name="e_fr_energy">    -77.30147297 </i>
    <i name="e_wo_entrp">    -77.30147297 </i>
    <i name="e_0_energy">    -77.30147297 </i>
   </energy>
  </scstep>
  <scstep>
   <time name="diag">    0.05    0.05</time>
   <time name="diis">    0.10    0.10</time>
   <time name="orth">    0.01    0.01</time>
   <time name="total">    0.18    0.18</time>
   <energy>
    <i name="e_fr_energy">    -77.30154173 </i>
    <i name="e_wo_entrp">    -77.30154173 </i>
    <i name="e_0_energy">    -77.30154173 </i>
   </energy>
  </scstep>
  <scstep>
   <time name="diag">    0.05    0.05</time>
   <time name="diis">    0.08    0.08</time>
   <time name="orth">    0.01    0.01</time>
   <time name="total">    0.15    0.15</time>
   <energy>
    <i name="e_fr_energy">    -77.30155687 </i>
    <i name="e_wo_entrp">    -77.30155687 </i>
    <i name="e_0_energy">    -77.30155687 </i>
   </energy>
  </scstep>
  <scstep>
   <time name="diag">    0.05    0.05</time>
   <time name="diis">    0.07    0.07</time>
   <time name="orth">    0.01    0.01</time>
   <time name="total">    0.13    0.13</time>
   <energy>
    <i name="alphaZ">     68.38118764 </i>
    <i name="ewald">  -2729.81342405 </i>
    <i name="hartreedc">   -650.45082668 </i>
    <i name="XCdc">    185.53841939 </i>
    <i name="pawpsdc">   7340.47508006 </i>
    <i name="pawaedc">  -7390.45139219 </i>
    <i name="eentropy">      0.00000000 </i>
    <i name="bandstr">   -670.06842839 </i>
    <i name="atom">   3769.08782378 </i>
    <i name="e_fr_energy">    -77.30156045 </i>
    <i name="e_wo_entrp">    -77.30156045 </i>
    <i name="e_0_energy">    -77.30156045 </i>
   </energy>
  </scstep>
  <structure>
   <crystal>
    <varray name="basis" >
     <v>       7.58022417       0.00000000       0.00000000 </v>
     <v>       0.00000000       6.33347261       0.00000000 </v>
     <v>       0.00000000       0.00000000       6.01079077 </v>
    </varray>
    <i name="volume">    288.57290863 </i>
    <varray name="rec_basis" >
     <v>       0.13192222       0.00000000       0.00000000 </v>
     <v>       0.00000000       0.15789126       0.00000000 </v>
     <v>       0.00000000       0.00000000       0.16636746 </v>
    </varray>
   </crystal>
   <varray name="positions" >
    <v>       0.00000000       0.31932238       0.30048470 </v>
    <v>       0.50000000       0.68067762       0.80048470 </v>
    <v>       0.22019414       0.16340822       0.19769474 </v>
    <v>       0.27980586       0.83659178       0.69769474 </v>
    <v>       0.72019414       0.83659178       0.69769474 </v>
    <v>       0.77980586       0.16340822       0.19769474 </v>
    <v>       0.00000000       0.61521864       0.16918898 </v>
    <v>       0.50000000       0.38478136       0.66918898 </v>
    <v>       0.00000000       0.32877446       0.63950105 </v>
    <v>       0.50000000       0.67122554       0.13950105 </v>
    <v>       0.00000000       0.65743324       0.78742973 </v>
    <v>       0.50000000       0.34256676       0.28742973 </v>
    <v>       0.25594515       0.18670381       0.80117514 </v>
    <v>       0.24405485       0.81329619       0.30117514 </v>
    <v>       0.75594515       0.81329619       0.30117514 </v>
    <v>       0.74405485       0.18670381       0.80117514 </v>
   </varray>
  </structure>
  <varray name="forces" >
   <v>      -0.00000000       0.00378071      -0.00266552 </v>
   <v>      -0.00000000      -0.00378071      -0.00266552 </v>
   <v>       0.02899903       0.13420207      -0.20324239 </v>
   <v>      -0.02899903      -0.13420207      -0.20324239 </v>
   <v>       0.02899903      -0.13420207      -0.20324239 </v>
   <v>      -0.02899903       0.13420207      -0.20324239 </v>
   <v>      -0.00000000       0.03473972       0.41318916 </v>
   <v>      -0.00000000      -0.03473972       0.41318916 </v>
   <v>      -0.00000000      -0.35292425      -0.03574525 </v>
   <v>      -0.00000000       0.35292425      -0.03574525 </v>
   <v>      -0.00000000       0.24429588      -0.11608542 </v>
   <v>      -0.00000000      -0.24429588      -0.11608542 </v>
   <v>       0.01468356       0.19399836       0.07389591 </v>
   <v>      -0.01468356      -0.19399836       0.07389591 </v>
   <v>       0.01468356      -0.19399836       0.07389591 </v>
   <v>      -0.01468356       0.19399836       0.07389591 </v>
  </varray>
  <varray name="stress" >
   <v>      -9.77616321       0.00000000       0.00000000 </v>
   <v>       0.00000000      11.41210176       0.00000000 </v>
   <v>       0.00000000       0.00000000      -0.53363691 </v>
  </varray>
  <energy>
   <i name="e_fr_energy">    -77.30156045 </i>
   <i name="e_wo_entrp">    -77.30156045 </i>
   <i name="e_0_energy">      0.00000000 </i>
  </energy>
  <time name="totalsc">    2.85    2.87</time>
  <eigenvalues>
   <array>
    <dimension dim="1">band</dimension>
    <dimension dim="2">kpoint</dimension>
    <dimension dim="3">spin</dimension>
    <field>eigene</field>
    <field>occ</field>
    <set>
     <set comment="spin 1">
      <set comment="kpoint 1">
       <r>  -40.9641    1.0000 </r>
       <r>  -40.9640    1.0000 </r>
       <r>  -40.7631    1.0000 </r>
       <r>  -40.7624    1.0000 </r>
       <r>  -40.7623    1.0000 </r>
       <r>  -40.7616    1.0000 </r>
       <r>  -12.6435    1.0000 </r>
       <r>  -12.4702    1.0000 </r>
       <r>   -9.5816    1.0000 </r>
       <r>   -9.5222    1.0000 </r>
       <r>   -9.4269    1.0000 </r>
       <r>   -9.4094    1.0000 </r>
       <r>   -9.3359    1.0000 </r>
       <r>   -9.3246    1.0000 </r>
       <r>   -5.6514    1.0000 </r>
       <r>   -5.0939    1.0000 </r>
       <r>   -2.6570    1.0000 </r>
       <r>   -2.6529    1.0000 </r>
       <r>   -2.4893    1.0000 </r>
       <r>   -2.2630    1.0000 </r>
       <r>   -2.1511    1.0000 </r>
       <r>   -2.0953    1.0000 </r>
       <r>   -0.1025    1.0000 </r>
       <r>   -0.0211    1.0000 </r>
       <r>    0.1489    1.0000 </r>
       <r>    0.2280    1.0000 </r>
       <r>    0.3306    1.0000 </r>
       <r>    0.5280    1.0000 </r>
       <r>    0.8338    1.0000 </r>
       <r>    1.1152    1.0000 </r>
       <r>    1.1951    1.0000 </r>
       <r>    1.3219    1.0000 </r>
       <r>    1.7606    1.0000 </r>
       <r>    1.8113    1.0000 </r>
       <r>    1.8922    1.0000 </r>
       <r>    1.9088    1.0000 </r>
       <r>    1.9541    1.0000 </r>
       <r>    2.1721    1.0000 </r>
       <r>    5.5551    0.0000 </r>
       <r>    5.6955    0.0000 </r>
       <r>    5.8384    0.0000 </r>
       <r>    6.3904    0.0000 </r>
       <r>    6.4087    0.0000 </r>
       <r>    7.1110    0.0000 </r>
       <r>    7.1913    0.0000 </r>
       <r>    7.2921    0.0000 </r>
       <r>    8.0404    0.0000 </r>
       <r>    8.5748    0.0000 </r>
      </set>
      <set comment="kpoint 2">
       <r>  -40.9640    1.0000 </r>
       <r>  -40.9640    1.0000 </r>
       <r>  -40.7629    1.0000 </r>
       <r>  -40.7626    1.0000 </r>
       <r>  -40.7622    1.0000 </r>
       <r>  -40.7618    1.0000 </r>
       <r>  -12.6014    1.0000 </r>
       <r>  -12.5147    1.0000 </r>
       <r>   -9.5460    1.0000 </r>
       <r>   -9.4803    1.0000 </r>
       <r>   -9.4259    1.0000 </r>
       <r>   -9.4159    1.0000 </r>
       <r>   -9.3979    1.0000 </r>
       <r>   -9.3541    1.0000 </r>
       <r>   -5.4763    1.0000 </r>
       <r>   -5.1981    1.0000 </r>
       <r>   -2.6808    1.0000 </r>
       <r>   -2.6309    1.0000 </r>
       <r>   -2.5290    1.0000 </r>
       <r>   -2.2428    1.0000 </r>
       <r>   -2.1558    1.0000 </r>
       <r>   -2.1488    1.0000 </r>
       <r>   -0.1013    1.0000 </r>
       <r>    0.0325    1.0000 </r>
       <r>    0.1507    1.0000 </r>
       <r>    0.3742    1.0000 </r>
       <r>    0.4052    1.0000 </r>
       <r>    0.5345    1.0000 </r>
       <r>    0.9429    1.0000 </r>
       <r>    1.1387    1.0000 </r>
       <r>    1.2776    1.0000 </r>
       <r>    1.3659    1.0000 </r>
       <r>    1.4836    1.0000 </r>
       <r>    1.5420    1.0000 </r>
       <r>    1.7437    1.0000 </r>
       <r>    1.8272    1.0000 </r>
       <r>    1.8877    1.0000 </r>
       <r>    1.9579    1.0000 </r>
       <r>    5.8786    0.0000 </r>
       <r>    6.0209    0.0000 </r>
       <r>    6.3244    0.0000 </r>
       <r>    6.4359    0.0000 </r>
       <r>    6.6992    0.0000 </r>
       <r>    6.8560    0.0000 </r>
       <r>    7.1221    0.0000 </r>
       <r>    7.1439    0.0000 </r>
       <r>    7.9857    0.0000 </r>
       <r>    8.6955    0.0000 </r>
      </set>
      <set comment="kpoint 3">
       <r>  -40.9640    1.0000 </r>
       <r>  -40.9640    1.0000 </r>
       <r>  -40.7630    1.0000 </r>
       <r>  -40.7624    1.0000 </r>
       <r>  -40.7623    1.0000 </r>
       <r>  -40.7616    1.0000 </r>
       <r>  -12.5951    1.0000 </r>
       <r>  -12.4923    1.0000 </r>
       <r>   -9.6241    1.0000 </r>
       <r>   -9.5577    1.0000 </r>
       <r>   -9.4408    1.0000 </r>
       <r>   -9.4025    1.0000 </r>
       <r>   -9.3617    1.0000 </r>
       <r>   -9.3387    1.0000 </r>
       <r>   -5.4430    1.0000 </r>
       <r>   -5.1508    1.0000 </r>
       <r>   -2.6868    1.0000 </r>
       <r>   -2.5772    1.0000 </r>
       <r>   -2.3572    1.0000 </r>
       <r>   -2.2828    1.0000 </r>
       <r>   -2.1522    1.0000 </r>
       <r>   -2.1156    1.0000 </r>
       <r>   -0.1357    1.0000 </r>
       <r>    0.0460    1.0000 </r>
       <r>    0.0640    1.0000 </r>
       <r>    0.2259    1.0000 </r>
       <r>    0.5492    1.0000 </r>
       <r>    0.5919    1.0000 </r>
       <r>    0.9283    1.0000 </r>
       <r>    0.9926    1.0000 </r>
       <r>    1.2985    1.0000 </r>
       <r>    1.4414    1.0000 </r>
       <r>    1.4843    1.0000 </r>
       <r>    1.5301    1.0000 </r>
       <r>    1.7149    1.0000 </r>
       <r>    1.8416    1.0000 </r>
       <r>    1.9546    1.0000 </r>
       <r>    2.2119    1.0000 </r>
       <r>    5.0378    0.0000 </r>
       <r>    5.8726    0.0000 </r>
       <r>    6.3312    0.0000 </r>
       <r>    6.4683    0.0000 </r>
       <r>    6.6527    0.0000 </r>
       <r>    6.8905    0.0000 </r>
       <r>    7.0538    0.0000 </r>
       <r>    7.1167    0.0000 </r>
       <r>    8.1106    0.0000 </r>
       <r>    8.5237    0.0000 </r>
      </set>
      <set comment="kpoint 4">
       <r>  -40.9640    1.0000 </r>
       <r>  -40.9640    1.0000 </r>
       <r>  -40.7629    1.0000 </r>
       <r>  -40.7625    1.0000 </r>
       <r>  -40.7621    1.0000 </r>
       <r>  -40.7617    1.0000 </r>
       <r>  -12.5683    1.0000 </r>
       <r>  -12.5169    1.0000 </r>
       <r>   -9.6392    1.0000 </r>
       <r>   -9.5963    1.0000 </r>
       <r>   -9.4386    1.0000 </r>
       <r>   -9.3843    1.0000 </r>
       <r>   -9.3528    1.0000 </r>
       <r>   -9.3313    1.0000 </r>
       <r>   -5.3321    1.0000 </r>
       <r>   -5.1861    1.0000 </r>
       <r>   -2.6385    1.0000 </r>
       <r>   -2.5544    1.0000 </r>
       <r>   -2.4213    1.0000 </r>
       <r>   -2.2823    1.0000 </r>
       <r>   -2.1686    1.0000 </r>
       <r>   -2.1423    1.0000 </r>
       <r>   -0.1523    1.0000 </r>
       <r>   -0.0182    1.0000 </r>
       <r>    0.0933    1.0000 </r>
       <r>    0.2704    1.0000 </r>
       <r>    0.5526    1.0000 </r>
       <r>    0.7675    1.0000 </r>
       <r>    0.8835    1.0000 </r>
       <r>    0.9440    1.0000 </r>
       <r>    1.1696    1.0000 </r>
       <r>    1.3030    1.0000 </r>
       <r>    1.3593    1.0000 </r>
       <r>    1.4780    1.0000 </r>
       <r>    1.7596    1.0000 </r>
       <r>    1.8989    1.0000 </r>
       <r>    1.9508    1.0000 </r>
       <r>    2.0424    1.0000 </r>
       <r>    5.5497    0.0000 </r>
       <r>    6.0521    0.0000 </r>
       <r>    6.3780    0.0000 </r>
       <r>    6.4743    0.0000 </r>
       <r>    6.7684    0.0000 </r>
       <r>    6.8141    0.0000 </r>
       <r>    7.1340    0.0000 </r>
       <r>    7.1874    0.0000 </r>
       <r>    8.2878    0.0000 </r>
       <r>    8.7865    0.0000 </r>
      </set>
      <set comment="kpoint 5">
       <r>  -40.9640    1.0000 </r>
       <r>  -40.9640    1.0000 </r>
       <r>  -40.7629    1.0000 </r>
       <r>  -40.7626    1.0000 </r>
       <r>  -40.7621    1.0000 </r>
       <r>  -40.7618    1.0000 </r>
       <r>  -12.5711    1.0000 </r>
       <r>  -12.4811    1.0000 </r>
       <r>   -9.6025    1.0000 </r>
       <r>   -9.5228    1.0000 </r>
       <r>   -9.5076    1.0000 </r>
       <r>   -9.4212    1.0000 </r>
       <r>   -9.4051    1.0000 </r>
       <r>   -9.4001    1.0000 </r>
       <r>   -5.4642    1.0000 </r>
       <r>   -5.1528    1.0000 </r>
       <r>   -2.4718    1.0000 </r>
       <r>   -2.3621    1.0000 </r>
       <r>   -2.1957    1.0000 </r>
       <r>   -2.1899    1.0000 </r>
       <r>   -2.1136    1.0000 </r>
       <r>   -2.0448    1.0000 </r>
       <r>   -0.2422    1.0000 </r>
       <r>   -0.2377    1.0000 </r>
       <r>   -0.1614    1.0000 </r>
       <r>   -0.0587    1.0000 </r>
       <r>    0.3305    1.0000 </r>
       <r>    0.6786    1.0000 </r>
       <r>    1.0026    1.0000 </r>
       <r>    1.0593    1.0000 </r>
       <r>    1.0987    1.0000 </r>
       <r>    1.4141    1.0000 </r>
       <r>    1.6572    1.0000 </r>
       <r>    1.7975    1.0000 </r>
       <r>    1.8870    1.0000 </r>
       <r>    1.8894    1.0000 </r>
       <r>    1.9193    1.0000 </r>
       <r>    2.2530    1.0000 </r>
       <r>    4.9822    0.0000 </r>
       <r>    5.4758    0.0000 </r>
       <r>    6.0473    0.0000 </r>
       <r>    6.3663    0.0000 </r>
       <r>    6.8403    0.0000 </r>
       <r>    6.9622    0.0000 </r>
       <r>    7.0482    0.0000 </r>
       <r>    7.3289    0.0000 </r>
       <r>    8.2990    0.0000 </r>
       <r>    8.5986    0.0000 </r>
      </set>
      <set comment="kpoint 6">
       <r>  -40.9640    1.0000 </r>
       <r>  -40.9640    1.0000 </r>
       <r>  -40.7627    1.0000 </r>
       <r>  -40.7624    1.0000 </r>
       <r>  -40.7623    1.0000 </r>
       <r>  -40.7619    1.0000 </r>
       <r>  -12.5472    1.0000 </r>
       <r>  -12.5022    1.0000 </r>
       <r>   -9.6476    1.0000 </r>
       <r>   -9.5949    1.0000 </r>
       <r>   -9.4456    1.0000 </r>
       <r>   -9.4095    1.0000 </r>
       <r>   -9.4019    1.0000 </r>
       <r>   -9.3744    1.0000 </r>
       <r>   -5.3536    1.0000 </r>
       <r>   -5.1974    1.0000 </r>
       <r>   -2.4760    1.0000 </r>
       <r>   -2.4200    1.0000 </r>
       <r>   -2.2543    1.0000 </r>
       <r>   -2.1944    1.0000 </r>
       <r>   -2.0662    1.0000 </r>
       <r>   -2.0129    1.0000 </r>
       <r>   -0.2184    1.0000 </r>
       <r>   -0.1560    1.0000 </r>
       <r>    0.0199    1.0000 </r>
       <r>    0.0747    1.0000 </r>
       <r>    0.2559    1.0000 </r>
       <r>    0.5752    1.0000 </r>
       <r>    0.8904    1.0000 </r>
       <r>    0.9685    1.0000 </r>
       <r>    1.1491    1.0000 </r>
       <r>    1.2202    1.0000 </r>
       <r>    1.5511    1.0000 </r>
       <r>    1.6503    1.0000 </r>
       <r>    1.7698    1.0000 </r>
       <r>    1.8616    1.0000 </r>
       <r>    1.9956    1.0000 </r>
       <r>    2.1066    1.0000 </r>
       <r>    5.3606    0.0000 </r>
       <r>    5.7126    0.0000 </r>
       <r>    6.5239    0.0000 </r>
       <r>    6.5922    0.0000 </r>
       <r>    6.8647    0.0000 </r>
       <r>    6.9500    0.0000 </r>
       <r>    7.1609    0.0000 </r>
       <r>    7.2492    0.0000 </r>
       <r>    8.1020    0.0000 </r>
       <r>    8.5281    0.0000 </r>
      </set>
      <set comment="kpoint 7">
       <r>  -40.9640    1.0000 </r>
       <r>  -40.9640    1.0000 </r>
       <r>  -40.7629    1.0000 </r>
       <r>  -40.7626    1.0000 </r>
       <r>  -40.7622    1.0000 </r>
       <r>  -40.7618    1.0000 </r>
       <r>  -12.5380    1.0000 </r>
       <r>  -12.4846    1.0000 </r>
       <r>   -9.6196    1.0000 </r>
       <r>   -9.5485    1.0000 </r>
       <r>   -9.5101    1.0000 </r>
       <r>   -9.4886    1.0000 </r>
       <r>   -9.4120    1.0000 </r>
       <r>   -9.4090    1.0000 </r>
       <r>   -5.3101    1.0000 </r>
       <r>   -5.1468    1.0000 </r>
       <r>   -2.3876    1.0000 </r>
       <r>   -2.3088    1.0000 </r>
       <r>   -2.2685    1.0000 </r>
       <r>   -2.1710    1.0000 </r>
       <r>   -2.1072    1.0000 </r>
       <r>   -2.0293    1.0000 </r>
       <r>   -0.1904    1.0000 </r>
       <r>   -0.0715    1.0000 </r>
       <r>   -0.0661    1.0000 </r>
       <r>    0.0947    1.0000 </r>
       <r>    0.3727    1.0000 </r>
       <r>    0.5138    1.0000 </r>
       <r>    0.9122    1.0000 </r>
       <r>    0.9366    1.0000 </r>
       <r>    1.1110    1.0000 </r>
       <r>    1.3109    1.0000 </r>
       <r>    1.5845    1.0000 </r>
       <r>    1.6322    1.0000 </r>
       <r>    1.7745    1.0000 </r>
       <r>    1.9318    1.0000 </r>
       <r>    2.0072    1.0000 </r>
       <r>    2.1300    1.0000 </r>
       <r>    4.9755    0.0000 </r>
       <r>    5.2697    0.0000 </r>
       <r>    6.3343    0.0000 </r>
       <r>    6.5099    0.0000 </r>
       <r>    6.6161    0.0000 </r>
       <r>    6.7173    0.0000 </r>
       <r>    6.8732    0.0000 </r>
       <r>    6.9584    0.0000 </r>
       <r>    8.1677    0.0000 </r>
       <r>    8.6333    0.0000 </r>
      </set>
      <set comment="kpoint 8">
       <r>  -40.9640    1.0000 </r>
       <r>  -40.9640    1.0000 </r>
       <r>  -40.7627    1.0000 </r>
       <r>  -40.7624    1.0000 </r>
       <r>  -40.7623    1.0000 </r>
       <r>  -40.7620    1.0000 </r>
       <r>  -12.5230    1.0000 </r>
       <r>  -12.4962    1.0000 </r>
       <r>   -9.6156    1.0000 </r>
       <r>   -9.5819    1.0000 </r>
       <r>   -9.5351    1.0000 </r>
       <r>   -9.4681    1.0000 </r>
       <r>   -9.4180    1.0000 </r>
       <r>   -9.3928    1.0000 </r>
       <r>   -5.2186    1.0000 </r>
       <r>   -5.1364    1.0000 </r>
       <r>   -2.4227    1.0000 </r>
       <r>   -2.3534    1.0000 </r>
       <r>   -2.2079    1.0000 </r>
       <r>   -2.1938    1.0000 </r>
       <r>   -2.0491    1.0000 </r>
       <r>   -2.0300    1.0000 </r>
       <r>   -0.3164    1.0000 </r>
       <r>   -0.1859    1.0000 </r>
       <r>   -0.0072    1.0000 </r>
       <r>    0.0935    1.0000 </r>
       <r>    0.4726    1.0000 </r>
       <r>    0.5567    1.0000 </r>
       <r>    0.7998    1.0000 </r>
       <r>    0.9253    1.0000 </r>
       <r>    1.0663    1.0000 </r>
       <r>    1.1694    1.0000 </r>
       <r>    1.5405    1.0000 </r>
       <r>    1.6121    1.0000 </r>
       <r>    1.7591    1.0000 </r>
       <r>    1.8462    1.0000 </r>
       <r>    2.0244    1.0000 </r>
       <r>    2.0745    1.0000 </r>
       <r>    5.3324    0.0000 </r>
       <r>    5.5943    0.0000 </r>
       <r>    6.4165    0.0000 </r>
       <r>    6.5378    0.0000 </r>
       <r>    6.7371    0.0000 </r>
       <r>    6.8641    0.0000 </r>
       <r>    7.0235    0.0000 </r>
       <r>    7.1716    0.0000 </r>
       <r>    8.1599    0.0000 </r>
       <r>    8.4713    0.0000 </r>
      </set>
     </set>
    </set>
   </array>
  </eigenvalues>
  <separator name="orbital magnetization" >
   <v name="MAGDIPOLOUT">      0.00000000      0.00000000      0.00000000</v>
  </separator>
  <dos>
   <i name="efermi">      2.38111375 </i>
   <total>
    <array>
     <dimension dim="1">gridpoints</dimension>
     <dimension dim="2">spin</dimension>
     <field>energy</field>
     <field>total</field>
     <field>integrated</field>
     <set>
      <set comment="spin 1">
       <r>   -43.4516     0.0000     0.0000 </r>
       <r>   -43.2692     0.0000     0.0000 </r>
       <r>   -43.0868     0.0000     0.0000 </r>
       <r>   -42.9043     0.0000     0.0000 </r>
       <r>   -42.7219     0.0000     0.0000 </r>
       <r>   -42.5395     0.0000     0.0000 </r>
       <r>   -42.3571     0.0000     0.0000 </r>
       <r>   -42.1747     0.0000     0.0000 </r>
       <r>   -41.9923     0.0000     0.0000 </r>
       <r>   -41.8098     0.0000     0.0000 </r>
       <r>   -41.6274     0.0000     0.0000 </r>
       <r>   -41.4450     0.0000     0.0000 </r>
       <r>   -41.2626     0.0000     0.0000 </r>
       <r>   -41.0802     0.0000     0.0000 </r>
       <r>   -40.8977     0.0000     4.0000 </r>
       <r>   -40.7153     0.0000    12.0000 </r>
       <r>   -40.5329     0.0000    12.0000 </r>
       <r>   -40.3505     0.0000    12.0000 </r>
       <r>   -40.1681     0.0000    12.0000 </r>
       <r>   -39.9856     0.0000    12.0000 </r>
       <r>   -39.8032     0.0000    12.0000 </r>
       <r>   -39.6208     0.0000    12.0000 </r>
       <r>   -39.4384     0.0000    12.0000 </r>
       <r>   -39.2560     0.0000    12.0000 </r>
       <r>   -39.0736     0.0000    12.0000 </r>
       <r>   -38.8911     0.0000    12.0000 </r>
       <r>   -38.7087     0.0000    12.0000 </r>
       <r>   -38.5263     0.0000    12.0000 </r>
       <r>   -38.3439     0.0000    12.0000 </r>
       <r>   -38.1615     0.0000    12.0000 </r>
       <r>   -37.9790     0.0000    12.0000 </r>
       <r>   -37.7966     0.0000    12.0000 </r>
       <r>   -37.6142     0.0000    12.0000 </r>
       <r>   -37.4318     0.0000    12.0000 </r>
       <r>   -37.2494     0.0000    12.0000 </r>
       <r>   -37.0669     0.0000    12.0000 </r>
       <r>   -36.8845     0.0000    12.0000 </r>
       <r>   -36.7021     0.0000    12.0000 </r>
       <r>   -36.5197     0.0000    12.0000 </r>
       <r>   -36.3373     0.0000    12.0000 </r>
       <r>   -36.1549     0.0000    12.0000 </r>
       <r>   -35.9724     0.0000    12.0000 </r>
       <r>   -35.7900     0.0000    12.0000 </r>
       <r>   -35.6076     0.0000    12.0000 </r>
       <r>   -35.4252     0.0000    12.0000 </r>
       <r>   -35.2428     0.0000    12.0000 </r>
       <r>   -35.0603     0.0000    12.0000 </r>
       <r>   -34.8779     0.0000    12.0000 </r>
       <r>   -34.6955     0.0000    12.0000 </r>
       <r>   -34.5131     0.0000    12.0000 </r>
       <r>   -34.3307     0.0000    12.0000 </r>
       <r>   -34.1482     0.0000    12.0000 </r>
       <r>   -33.9658     0.0000    12.0000 </r>
       <r>   -33.7834     0.0000    12.0000 </r>
       <r>   -33.6010     0.0000    12.0000 </r>
       <r>   -33.4186     0.0000    12.0000 </r>
       <r>   -33.2362     0.0000    12.0000 </r>
       <r>   -33.0537     0.0000    12.0000 </r>
       <r>   -32.8713     0.0000    12.0000 </r>
       <r>   -32.6889     0.0000    12.0000 </r>
       <r>   -32.5065     0.0000    12.0000 </r>
       <r>   -32.3241     0.0000    12.0000 </r>
       <r>   -32.1416     0.0000    12.0000 </r>
       <r>   -31.9592     0.0000    12.0000 </r>
       <r>   -31.7768     0.0000    12.0000 </r>
       <r>   -31.5944     0.0000    12.0000 </r>
       <r>   -31.4120     0.0000    12.0000 </r>
       <r>   -31.2295     0.0000    12.0000 </r>
       <r>   -31.0471     0.0000    12.0000 </r>
       <r>   -30.8647     0.0000    12.0000 </r>
       <r>   -30.6823     0.0000    12.0000 </r>
       <r>   -30.4999     0.0000    12.0000 </r>
       <r>   -30.3175     0.0000    12.0000 </r>
       <r>   -30.1350     0.0000    12.0000 </r>
       <r>   -29.9526     0.0000    12.0000 </r>
       <r>   -29.7702     0.0000    12.0000 </r>
       <r>   -29.5878     0.0000    12.0000 </r>
       <r>   -29.4054     0.0000    12.0000 </r>
       <r>   -29.2229     0.0000    12.0000 </r>
       <r>   -29.0405     0.0000    12.0000 </r>
       <r>   -28.8581     0.0000    12.0000 </r>
       <r>   -28.6757     0.0000    12.0000 </r>
       <r>   -28.4933     0.0000    12.0000 </r>
       <r>   -28.3108     0.0000    12.0000 </r>
       <r>   -28.1284     0.0000    12.0000 </r>
       <r>   -27.9460     0.0000    12.0000 </r>
       <r>   -27.7636     0.0000    12.0000 </r>
       <r>   -27.5812     0.0000    12.0000 </r>
       <r>   -27.3988     0.0000    12.0000 </r>
       <r>   -27.2163     0.0000    12.0000 </r>
       <r>   -27.0339     0.0000    12.0000 </r>
       <r>   -26.8515     0.0000    12.0000 </r>
       <r>   -26.6691     0.0000    12.0000 </r>
       <r>   -26.4867     0.0000    12.0000 </r>
       <r>   -26.3042     0.0000    12.0000 </r>
       <r>   -26.1218     0.0000    12.0000 </r>
       <r>   -25.9394     0.0000    12.0000 </r>
       <r>   -25.7570     0.0000    12.0000 </r>
       <r>   -25.5746     0.0000    12.0000 </r>
       <r>   -25.3921     0.0000    12.0000 </r>
       <r>   -25.2097     0.0000    12.0000 </r>
       <r>   -25.0273     0.0000    12.0000 </r>
       <r>   -24.8449     0.0000    12.0000 </r>
       <r>   -24.6625     0.0000    12.0000 </r>
       <r>   -24.4800     0.0000    12.0000 </r>
       <r>   -24.2976     0.0000    12.0000 </r>
       <r>   -24.1152     0.0000    12.0000 </r>
       <r>   -23.9328     0.0000    12.0000 </r>
       <r>   -23.7504     0.0000    12.0000 </r>
       <r>   -23.5680     0.0000    12.0000 </r>
       <r>   -23.3855     0.0000    12.0000 </r>
       <r>   -23.2031     0.0000    12.0000 </r>
       <r>   -23.0207     0.0000    12.0000 </r>
       <r>   -22.8383     0.0000    12.0000 </r>
       <r>   -22.6559     0.0000    12.0000 </r>
       <r>   -22.4734     0.0000    12.0000 </r>
       <r>   -22.2910     0.0000    12.0000 </r>
       <r>   -22.1086     0.0000    12.0000 </r>
       <r>   -21.9262     0.0000    12.0000 </r>
       <r>   -21.7438     0.0000    12.0000 </r>
       <r>   -21.5613     0.0000    12.0000 </r>
       <r>   -21.3789     0.0000    12.0000 </r>
       <r>   -21.1965     0.0000    12.0000 </r>
       <r>   -21.0141     0.0000    12.0000 </r>
       <r>   -20.8317     0.0000    12.0000 </r>
       <r>   -20.6493     0.0000    12.0000 </r>
       <r>   -20.4668     0.0000    12.0000 </r>
       <r>   -20.2844     0.0000    12.0000 </r>
       <r>   -20.1020     0.0000    12.0000 </r>
       <r>   -19.9196     0.0000    12.0000 </r>
       <r>   -19.7372     0.0000    12.0000 </r>
       <r>   -19.5547     0.0000    12.0000 </r>
       <r>   -19.3723     0.0000    12.0000 </r>
       <r>   -19.1899     0.0000    12.0000 </r>
       <r>   -19.0075     0.0000    12.0000 </r>
       <r>   -18.8251     0.0000    12.0000 </r>
       <r>   -18.6426     0.0000    12.0000 </r>
       <r>   -18.4602     0.0000    12.0000 </r>
       <r>   -18.2778     0.0000    12.0000 </r>
       <r>   -18.0954     0.0000    12.0000 </r>
       <r>   -17.9130     0.0000    12.0000 </r>
       <r>   -17.7306     0.0000    12.0000 </r>
       <r>   -17.5481     0.0000    12.0000 </r>
       <r>   -17.3657     0.0000    12.0000 </r>
       <r>   -17.1833     0.0000    12.0000 </r>
       <r>   -17.0009     0.0000    12.0000 </r>
       <r>   -16.8185     0.0000    12.0000 </r>
       <r>   -16.6360     0.0000    12.0000 </r>
       <r>   -16.4536     0.0000    12.0000 </r>
       <r>   -16.2712     0.0000    12.0000 </r>
       <r>   -16.0888     0.0000    12.0000 </r>
       <r>   -15.9064     0.0000    12.0000 </r>
       <r>   -15.7239     0.0000    12.0000 </r>
       <r>   -15.5415     0.0000    12.0000 </r>
       <r>   -15.3591     0.0000    12.0000 </r>
       <r>   -15.1767     0.0000    12.0000 </r>
       <r>   -14.9943     0.0000    12.0000 </r>
       <r>   -14.8119     0.0000    12.0000 </r>
       <r>   -14.6294     0.0000    12.0000 </r>
       <r>   -14.4470     0.0000    12.0000 </r>
       <r>   -14.2646     0.0000    12.0000 </r>
       <r>   -14.0822     0.0000    12.0000 </r>
       <r>   -13.8998     0.0000    12.0000 </r>
       <r>   -13.7173     0.0000    12.0000 </r>
       <r>   -13.5349     0.0000    12.0000 </r>
       <r>   -13.3525     0.0000    12.0000 </r>
       <r>   -13.1701     0.0000    12.0000 </r>
       <r>   -12.9877     0.0000    12.0000 </r>
       <r>   -12.8052     0.0000    12.0000 </r>
       <r>   -12.6228     1.1039    12.0076 </r>
       <r>   -12.4404     0.0000    16.0000 </r>
       <r>   -12.2580     0.0000    16.0000 </r>
       <r>   -12.0756     0.0000    16.0000 </r>
       <r>   -11.8932     0.0000    16.0000 </r>
       <r>   -11.7107     0.0000    16.0000 </r>
       <r>   -11.5283     0.0000    16.0000 </r>
       <r>   -11.3459     0.0000    16.0000 </r>
       <r>   -11.1635     0.0000    16.0000 </r>
       <r>   -10.9811     0.0000    16.0000 </r>
       <r>   -10.7986     0.0000    16.0000 </r>
       <r>   -10.6162     0.0000    16.0000 </r>
       <r>   -10.4338     0.0000    16.0000 </r>
       <r>   -10.2514     0.0000    16.0000 </r>
       <r>   -10.0690     0.0000    16.0000 </r>
       <r>    -9.8865     0.0000    16.0000 </r>
       <r>    -9.7041     0.0000    16.0000 </r>
       <r>    -9.5217    22.7996    20.1552 </r>
       <r>    -9.3393    16.2100    27.9135 </r>
       <r>    -9.1569     0.0000    28.0000 </r>
       <r>    -8.9745     0.0000    28.0000 </r>
       <r>    -8.7920     0.0000    28.0000 </r>
       <r>    -8.6096     0.0000    28.0000 </r>
       <r>    -8.4272     0.0000    28.0000 </r>
       <r>    -8.2448     0.0000    28.0000 </r>
       <r>    -8.0624     0.0000    28.0000 </r>
       <r>    -7.8799     0.0000    28.0000 </r>
       <r>    -7.6975     0.0000    28.0000 </r>
       <r>    -7.5151     0.0000    28.0000 </r>
       <r>    -7.3327     0.0000    28.0000 </r>
       <r>    -7.1503     0.0000    28.0000 </r>
       <r>    -6.9678     0.0000    28.0000 </r>
       <r>    -6.7854     0.0000    28.0000 </r>
       <r>    -6.6030     0.0000    28.0000 </r>
       <r>    -6.4206     0.0000    28.0000 </r>
       <r>    -6.2382     0.0000    28.0000 </r>
       <r>    -6.0558     0.0000    28.0000 </r>
       <r>    -5.8733     0.0000    28.0000 </r>
       <r>    -5.6909     0.0000    28.0000 </r>
       <r>    -5.5085     1.1406    28.0543 </r>
       <r>    -5.3261    10.9746    29.0501 </r>
       <r>    -5.1437    48.5392    31.5741 </r>
       <r>    -4.9612     0.0000    32.0000 </r>
       <r>    -4.7788     0.0000    32.0000 </r>
       <r>    -4.5964     0.0000    32.0000 </r>
       <r>    -4.4140     0.0000    32.0000 </r>
       <r>    -4.2316     0.0000    32.0000 </r>
       <r>    -4.0491     0.0000    32.0000 </r>
       <r>    -3.8667     0.0000    32.0000 </r>
       <r>    -3.6843     0.0000    32.0000 </r>
       <r>    -3.5019     0.0000    32.0000 </r>
       <r>    -3.3195     0.0000    32.0000 </r>
       <r>    -3.1371     0.0000    32.0000 </r>
       <r>    -2.9546     0.0000    32.0000 </r>
       <r>    -2.7722     0.0000    32.0000 </r>
       <r>    -2.5898     8.3312    32.4774 </r>
       <r>    -2.4074    20.7037    35.1817 </r>
       <r>    -2.2250    29.6833    38.4169 </r>
       <r>    -2.0425    15.9967    43.1477 </r>
       <r>    -1.8601     0.0000    44.0000 </r>
       <r>    -1.6777     0.0000    44.0000 </r>
       <r>    -1.4953     0.0000    44.0000 </r>
       <r>    -1.3129     0.0000    44.0000 </r>
       <r>    -1.1304     0.0000    44.0000 </r>
       <r>    -0.9480     0.0000    44.0000 </r>
       <r>    -0.7656     0.0000    44.0000 </r>
       <r>    -0.5832     0.0000    44.0000 </r>
       <r>    -0.4008     0.0000    44.0000 </r>
       <r>    -0.2184    15.6774    44.9712 </r>
       <r>    -0.0359    17.0100    48.0011 </r>
       <r>     0.1465     7.1082    51.1446 </r>
       <r>     0.3289     6.2529    52.1890 </r>
       <r>     0.5113     6.3972    53.7788 </r>
       <r>     0.6937     3.0307    55.8727 </r>
       <r>     0.8762    18.0654    56.9114 </r>
       <r>     1.0586     3.8342    59.8623 </r>
       <r>     1.2410    12.4410    62.5623 </r>
       <r>     1.4234     3.9986    64.1270 </r>
       <r>     1.6058    14.6046    66.6625 </r>
       <r>     1.7883     8.5218    69.5915 </r>
       <r>     1.9707    21.4675    72.7419 </r>
       <r>     2.1531     7.7511    75.6827 </r>
       <r>     2.3355     0.0000    76.0000 </r>
       <r>     2.5179     0.0000    76.0000 </r>
       <r>     2.7003     0.0000    76.0000 </r>
       <r>     2.8828     0.0000    76.0000 </r>
       <r>     3.0652     0.0000    76.0000 </r>
       <r>     3.2476     0.0000    76.0000 </r>
       <r>     3.4300     0.0000    76.0000 </r>
       <r>     3.6124     0.0000    76.0000 </r>
       <r>     3.7949     0.0000    76.0000 </r>
       <r>     3.9773     0.0000    76.0000 </r>
       <r>     4.1597     0.0000    76.0000 </r>
       <r>     4.3421     0.0000    76.0000 </r>
       <r>     4.5245     0.0000    76.0000 </r>
       <r>     4.7070     0.0000    76.0000 </r>
       <r>     4.8894     0.0000    76.0000 </r>
       <r>     5.0718     2.5756    76.1990 </r>
       <r>     5.2542     3.0530    76.7175 </r>
       <r>     5.4366     4.7909    77.7095 </r>
       <r>     5.6190     5.4398    78.6678 </r>
       <r>     5.8015     3.2070    79.4617 </r>
       <r>     5.9839     1.9058    79.9296 </r>
       <r>     6.1663     1.3833    80.1398 </r>
       <r>     6.3487    11.8433    80.6740 </r>
       <r>     6.5311    16.9220    83.5095 </r>
       <r>     6.7136     9.6948    84.7077 </r>
       <r>     6.8960    11.2898    87.4743 </r>
       <r>     7.0784    15.2354    89.4098 </r>
       <r>     7.2608     3.4100    91.8989 </r>
       <r>     7.4432     0.0000    92.0000 </r>
       <r>     7.6257     0.0000    92.0000 </r>
       <r>     7.8081     0.0000    92.0000 </r>
       <r>     7.9905     0.0773    92.0002 </r>
       <r>     8.1729    10.5385    93.2940 </r>
       <r>     8.3553     0.0000    94.0000 </r>
       <r>     8.5377     9.7599    94.5835 </r>
       <r>     8.7202     2.5162    95.9076 </r>
       <r>     8.9026     0.0000    96.0000 </r>
       <r>     9.0850     0.0000    96.0000 </r>
       <r>     9.2674     0.0000    96.0000 </r>
       <r>     9.4498     0.0000    96.0000 </r>
       <r>     9.6323     0.0000    96.0000 </r>
       <r>     9.8147     0.0000    96.0000 </r>
       <r>     9.9971     0.0000    96.0000 </r>
       <r>    10.1795     0.0000    96.0000 </r>
       <r>    10.3619     0.0000    96.0000 </r>
       <r>    10.5444     0.0000    96.0000 </r>
       <r>    10.7268     0.0000    96.0000 </r>
       <r>    10.9092     0.0000    96.0000 </r>
       <r>    11.0916     0.0000    96.0000 </r>
       <r>    11.2740     0.0000    96.0000 </r>
      </set>
     </set>
    </array>
   </total>
  </dos>
 </calculation>
 <structure name="finalpos" >
  <crystal>
   <varray name="basis" >
    <v>       7.58022417       0.00000000       0.00000000 </v>
    <v>       0.00000000       6.33347261       0.00000000 </v>
    <v>       0.00000000       0.00000000       6.01079077 </v>
   </varray>
   <i name="volume">    288.57290863 </i>
   <varray name="rec_basis" >
    <v>       0.13192222       0.00000000       0.00000000 </v>
    <v>       0.00000000       0.15789126       0.00000000 </v>
    <v>       0.00000000       0.00000000       0.16636746 </v>
   </varray>
  </crystal>
  <varray name="positions" >
   <v>       0.00000000       0.31932238       0.30048470 </v>
   <v>       0.50000000       0.68067762       0.80048470 </v>
   <v>       0.22019414       0.16340822       0.19769474 </v>
   <v>       0.27980586       0.83659178       0.69769474 </v>
   <v>       0.72019414       0.83659178       0.69769474 </v>
   <v>       0.77980586       0.16340822       0.19769474 </v>
   <v>       0.00000000       0.61521864       0.16918898 </v>
   <v>       0.50000000       0.38478136       0.66918898 </v>
   <v>       0.00000000       0.32877446       0.63950105 </v>
   <v>       0.50000000       0.67122554       0.13950105 </v>
   <v>       0.00000000       0.65743324       0.78742973 </v>
   <v>       0.50000000       0.34256676       0.28742973 </v>
   <v>       0.25594515       0.18670381       0.80117514 </v>
   <v>       0.24405485       0.81329619       0.30117514 </v>
   <v>       0.75594515       0.81329619       0.30117514 </v>
   <v>       0.74405485       0.18670381       0.80117514 </v>
  </varray>
 </structure>
</modeling>
