unknown system                          
           1
     7.580224    0.000000    0.000000
     0.000000    6.333473    0.000000
     0.000000    0.000000    6.010791
   P    S    Li
   2   8   6
Direct configuration=     1
   0.00000000  0.31932238  0.30048470
   0.50000000  0.68067762  0.80048470
   0.22019414  0.16340822  0.19769474
   0.27980586  0.83659178  0.69769474
   0.72019414  0.83659178  0.69769474
   0.77980586  0.16340822  0.19769474
   0.00000000  0.61521864  0.16918898
   0.50000000  0.38478136  0.66918898
   0.00000000  0.32877446  0.63950105
   0.50000000  0.67122554  0.13950105
   0.00000000  0.65743324  0.78742973
   0.50000000  0.34256676  0.28742973
   0.25594515  0.18670381  0.80117514
   0.24405485  0.81329619  0.30117514
   0.75594515  0.81329619  0.30117514
   0.74405485  0.18670381  0.80117514
