  16  16   0   0
  0.1767147E+02  0.7767304E-09  0.6133112E-09  0.5935283E-09  0.5000000E-15
  1.000000000000000E-004
  CAR 
 unknown system                          
     11.49243130    -43.92559232  301      2.71791090      1.00000000
    -43.926  0.0000E+00  0.0000E+00
    -43.741  0.0000E+00  0.0000E+00
    -43.556  0.0000E+00  0.0000E+00
    -43.371  0.0000E+00  0.0000E+00
    -43.187  0.0000E+00  0.0000E+00
    -43.002  0.0000E+00  0.0000E+00
    -42.817  0.0000E+00  0.0000E+00
    -42.633  0.0000E+00  0.0000E+00
    -42.448  0.0000E+00  0.0000E+00
    -42.263  0.0000E+00  0.0000E+00
    -42.078  0.0000E+00  0.0000E+00
    -41.894  0.0000E+00  0.0000E+00
    -41.709  0.0000E+00  0.0000E+00
    -41.524  0.0000E+00  0.0000E+00
    -41.339  0.0000E+00  0.4000E+01
    -41.155  0.0000E+00  0.4000E+01
    -40.970  0.0000E+00  0.4000E+01
    -40.785  0.0000E+00  0.4000E+01
    -40.601  0.0000E+00  0.1200E+02
    -40.416  0.0000E+00  0.1200E+02
    -40.231  0.0000E+00  0.1200E+02
    -40.046  0.0000E+00  0.1200E+02
    -39.862  0.0000E+00  0.1200E+02
    -39.677  0.0000E+00  0.1200E+02
    -39.492  0.0000E+00  0.1200E+02
    -39.307  0.0000E+00  0.1200E+02
    -39.123  0.0000E+00  0.1200E+02
    -38.938  0.0000E+00  0.1200E+02
    -38.753  0.0000E+00  0.1200E+02
    -38.569  0.0000E+00  0.1200E+02
    -38.384  0.0000E+00  0.1200E+02
    -38.199  0.0000E+00  0.1200E+02
    -38.014  0.0000E+00  0.1200E+02
    -37.830  0.0000E+00  0.1200E+02
    -37.645  0.0000E+00  0.1200E+02
    -37.460  0.0000E+00  0.1200E+02
    -37.275  0.0000E+00  0.1200E+02
    -37.091  0.0000E+00  0.1200E+02
    -36.906  0.0000E+00  0.1200E+02
    -36.721  0.0000E+00  0.1200E+02
    -36.537  0.0000E+00  0.1200E+02
    -36.352  0.0000E+00  0.1200E+02
    -36.167  0.0000E+00  0.1200E+02
    -35.982  0.0000E+00  0.1200E+02
    -35.798  0.0000E+00  0.1200E+02
    -35.613  0.0000E+00  0.1200E+02
    -35.428  0.0000E+00  0.1200E+02
    -35.243  0.0000E+00  0.1200E+02
    -35.059  0.0000E+00  0.1200E+02
    -34.874  0.0000E+00  0.1200E+02
    -34.689  0.0000E+00  0.1200E+02
    -34.505  0.0000E+00  0.1200E+02
    -34.320  0.0000E+00  0.1200E+02
    -34.135  0.0000E+00  0.1200E+02
    -33.950  0.0000E+00  0.1200E+02
    -33.766  0.0000E+00  0.1200E+02
    -33.581  0.0000E+00  0.1200E+02
    -33.396  0.0000E+00  0.1200E+02
    -33.211  0.0000E+00  0.1200E+02
    -33.027  0.0000E+00  0.1200E+02
    -32.842  0.0000E+00  0.1200E+02
    -32.657  0.0000E+00  0.1200E+02
    -32.473  0.0000E+00  0.1200E+02
    -32.288  0.0000E+00  0.1200E+02
    -32.103  0.0000E+00  0.1200E+02
    -31.918  0.0000E+00  0.1200E+02
    -31.734  0.0000E+00  0.1200E+02
    -31.549  0.0000E+00  0.1200E+02
    -31.364  0.0000E+00  0.1200E+02
    -31.179  0.0000E+00  0.1200E+02
    -30.995  0.0000E+00  0.1200E+02
    -30.810  0.0000E+00  0.1200E+02
    -30.625  0.0000E+00  0.1200E+02
    -30.441  0.0000E+00  0.1200E+02
    -30.256  0.0000E+00  0.1200E+02
    -30.071  0.0000E+00  0.1200E+02
    -29.886  0.0000E+00  0.1200E+02
    -29.702  0.0000E+00  0.1200E+02
    -29.517  0.0000E+00  0.1200E+02
    -29.332  0.0000E+00  0.1200E+02
    -29.147  0.0000E+00  0.1200E+02
    -28.963  0.0000E+00  0.1200E+02
    -28.778  0.0000E+00  0.1200E+02
    -28.593  0.0000E+00  0.1200E+02
    -28.409  0.0000E+00  0.1200E+02
    -28.224  0.0000E+00  0.1200E+02
    -28.039  0.0000E+00  0.1200E+02
    -27.854  0.0000E+00  0.1200E+02
    -27.670  0.0000E+00  0.1200E+02
    -27.485  0.0000E+00  0.1200E+02
    -27.300  0.0000E+00  0.1200E+02
    -27.115  0.0000E+00  0.1200E+02
    -26.931  0.0000E+00  0.1200E+02
    -26.746  0.0000E+00  0.1200E+02
    -26.561  0.0000E+00  0.1200E+02
    -26.377  0.0000E+00  0.1200E+02
    -26.192  0.0000E+00  0.1200E+02
    -26.007  0.0000E+00  0.1200E+02
    -25.822  0.0000E+00  0.1200E+02
    -25.638  0.0000E+00  0.1200E+02
    -25.453  0.0000E+00  0.1200E+02
    -25.268  0.0000E+00  0.1200E+02
    -25.083  0.0000E+00  0.1200E+02
    -24.899  0.0000E+00  0.1200E+02
    -24.714  0.0000E+00  0.1200E+02
    -24.529  0.0000E+00  0.1200E+02
    -24.345  0.0000E+00  0.1200E+02
    -24.160  0.0000E+00  0.1200E+02
    -23.975  0.0000E+00  0.1200E+02
    -23.790  0.0000E+00  0.1200E+02
    -23.606  0.0000E+00  0.1200E+02
    -23.421  0.0000E+00  0.1200E+02
    -23.236  0.0000E+00  0.1200E+02
    -23.051  0.0000E+00  0.1200E+02
    -22.867  0.0000E+00  0.1200E+02
    -22.682  0.0000E+00  0.1200E+02
    -22.497  0.0000E+00  0.1200E+02
    -22.313  0.0000E+00  0.1200E+02
    -22.128  0.0000E+00  0.1200E+02
    -21.943  0.0000E+00  0.1200E+02
    -21.758  0.0000E+00  0.1200E+02
    -21.574  0.0000E+00  0.1200E+02
    -21.389  0.0000E+00  0.1200E+02
    -21.204  0.0000E+00  0.1200E+02
    -21.019  0.0000E+00  0.1200E+02
    -20.835  0.0000E+00  0.1200E+02
    -20.650  0.0000E+00  0.1200E+02
    -20.465  0.0000E+00  0.1200E+02
    -20.281  0.0000E+00  0.1200E+02
    -20.096  0.0000E+00  0.1200E+02
    -19.911  0.0000E+00  0.1200E+02
    -19.726  0.0000E+00  0.1200E+02
    -19.542  0.0000E+00  0.1200E+02
    -19.357  0.0000E+00  0.1200E+02
    -19.172  0.0000E+00  0.1200E+02
    -18.987  0.0000E+00  0.1200E+02
    -18.803  0.0000E+00  0.1200E+02
    -18.618  0.0000E+00  0.1200E+02
    -18.433  0.0000E+00  0.1200E+02
    -18.249  0.0000E+00  0.1200E+02
    -18.064  0.0000E+00  0.1200E+02
    -17.879  0.0000E+00  0.1200E+02
    -17.694  0.0000E+00  0.1200E+02
    -17.510  0.0000E+00  0.1200E+02
    -17.325  0.0000E+00  0.1200E+02
    -17.140  0.0000E+00  0.1200E+02
    -16.955  0.0000E+00  0.1200E+02
    -16.771  0.0000E+00  0.1200E+02
    -16.586  0.0000E+00  0.1200E+02
    -16.401  0.0000E+00  0.1200E+02
    -16.217  0.0000E+00  0.1200E+02
    -16.032  0.0000E+00  0.1200E+02
    -15.847  0.0000E+00  0.1200E+02
    -15.662  0.0000E+00  0.1200E+02
    -15.478  0.0000E+00  0.1200E+02
    -15.293  0.0000E+00  0.1200E+02
    -15.108  0.0000E+00  0.1200E+02
    -14.923  0.0000E+00  0.1200E+02
    -14.739  0.0000E+00  0.1200E+02
    -14.554  0.0000E+00  0.1200E+02
    -14.369  0.0000E+00  0.1200E+02
    -14.185  0.0000E+00  0.1200E+02
    -14.000  0.0000E+00  0.1200E+02
    -13.815  0.0000E+00  0.1200E+02
    -13.630  0.0000E+00  0.1200E+02
    -13.446  0.0000E+00  0.1200E+02
    -13.261  0.0000E+00  0.1200E+02
    -13.076  0.0000E+00  0.1200E+02
    -12.891  0.0000E+00  0.1200E+02
    -12.707  0.0000E+00  0.1200E+02
    -12.522  0.0000E+00  0.1200E+02
    -12.337  0.1881E+02  0.1253E+02
    -12.153  0.0000E+00  0.1600E+02
    -11.968  0.0000E+00  0.1600E+02
    -11.783  0.0000E+00  0.1600E+02
    -11.598  0.0000E+00  0.1600E+02
    -11.414  0.0000E+00  0.1600E+02
    -11.229  0.0000E+00  0.1600E+02
    -11.044  0.0000E+00  0.1600E+02
    -10.860  0.0000E+00  0.1600E+02
    -10.675  0.0000E+00  0.1600E+02
    -10.490  0.0000E+00  0.1600E+02
    -10.305  0.0000E+00  0.1600E+02
    -10.121  0.0000E+00  0.1600E+02
     -9.936  0.0000E+00  0.1600E+02
     -9.751  0.0000E+00  0.1600E+02
     -9.566  0.0000E+00  0.1600E+02
     -9.382  0.1450E+02  0.1952E+02
     -9.197  0.1400E+02  0.2297E+02
     -9.012  0.2374E+02  0.2702E+02
     -8.828  0.0000E+00  0.2800E+02
     -8.643  0.0000E+00  0.2800E+02
     -8.458  0.0000E+00  0.2800E+02
     -8.273  0.0000E+00  0.2800E+02
     -8.089  0.0000E+00  0.2800E+02
     -7.904  0.0000E+00  0.2800E+02
     -7.719  0.0000E+00  0.2800E+02
     -7.534  0.0000E+00  0.2800E+02
     -7.350  0.0000E+00  0.2800E+02
     -7.165  0.0000E+00  0.2800E+02
     -6.980  0.0000E+00  0.2800E+02
     -6.796  0.0000E+00  0.2800E+02
     -6.611  0.0000E+00  0.2800E+02
     -6.426  0.0000E+00  0.2800E+02
     -6.241  0.0000E+00  0.2800E+02
     -6.057  0.0000E+00  0.2800E+02
     -5.872  0.0000E+00  0.2800E+02
     -5.687  0.0000E+00  0.2800E+02
     -5.502  0.1057E-01  0.2800E+02
     -5.318  0.1332E+01  0.2808E+02
     -5.133  0.7275E+01  0.2885E+02
     -4.948  0.7437E+01  0.2995E+02
     -4.764  0.9159E+01  0.3188E+02
     -4.579  0.0000E+00  0.3200E+02
     -4.394  0.0000E+00  0.3200E+02
     -4.209  0.0000E+00  0.3200E+02
     -4.025  0.0000E+00  0.3200E+02
     -3.840  0.0000E+00  0.3200E+02
     -3.655  0.0000E+00  0.3200E+02
     -3.470  0.0000E+00  0.3200E+02
     -3.286  0.0000E+00  0.3200E+02
     -3.101  0.0000E+00  0.3200E+02
     -2.916  0.0000E+00  0.3200E+02
     -2.732  0.0000E+00  0.3200E+02
     -2.547  0.2557E+01  0.3206E+02
     -2.362  0.1043E+02  0.3333E+02
     -2.177  0.1053E+02  0.3612E+02
     -1.993  0.1441E+02  0.3939E+02
     -1.808  0.2221E+02  0.4233E+02
     -1.623  0.0000E+00  0.4400E+02
     -1.438  0.0000E+00  0.4400E+02
     -1.254  0.0000E+00  0.4400E+02
     -1.069  0.0000E+00  0.4400E+02
     -0.884  0.0000E+00  0.4400E+02
     -0.700  0.0000E+00  0.4400E+02
     -0.515  0.0000E+00  0.4400E+02
     -0.330  0.0000E+00  0.4400E+02
     -0.145  0.4418E+01  0.4409E+02
      0.039  0.1363E+02  0.4645E+02
      0.224  0.9248E+01  0.4824E+02
      0.409  0.7467E+01  0.5022E+02
      0.594  0.1004E+02  0.5255E+02
      0.778  0.1194E+02  0.5520E+02
      0.963  0.9224E+01  0.5634E+02
      1.148  0.1309E+02  0.5858E+02
      1.332  0.9611E+01  0.6031E+02
      1.517  0.1126E+02  0.6249E+02
      1.702  0.1286E+02  0.6464E+02
      1.887  0.7615E+01  0.6628E+02
      2.071  0.9462E+01  0.6850E+02
      2.256  0.1137E+02  0.7145E+02
      2.441  0.1007E+02  0.7240E+02
      2.626  0.1403E+02  0.7558E+02
      2.810  0.0000E+00  0.7600E+02
      2.995  0.0000E+00  0.7600E+02
      3.180  0.0000E+00  0.7600E+02
      3.364  0.0000E+00  0.7600E+02
      3.549  0.0000E+00  0.7600E+02
      3.734  0.0000E+00  0.7600E+02
      3.919  0.0000E+00  0.7600E+02
      4.103  0.0000E+00  0.7600E+02
      4.288  0.0000E+00  0.7600E+02
      4.473  0.0000E+00  0.7600E+02
      4.658  0.0000E+00  0.7600E+02
      4.842  0.0000E+00  0.7600E+02
      5.027  0.0000E+00  0.7600E+02
      5.212  0.0000E+00  0.7600E+02
      5.396  0.6550E+00  0.7602E+02
      5.581  0.4463E+01  0.7647E+02
      5.766  0.3443E+01  0.7747E+02
      5.951  0.9651E+01  0.7867E+02
      6.135  0.4267E+01  0.7973E+02
      6.320  0.0000E+00  0.8000E+02
      6.505  0.7537E+01  0.8039E+02
      6.690  0.1537E+02  0.8276E+02
      6.874  0.2816E+01  0.8410E+02
      7.059  0.1246E+02  0.8574E+02
      7.244  0.9252E+01  0.8808E+02
      7.428  0.1342E+02  0.9026E+02
      7.613  0.1917E+01  0.9197E+02
      7.798  0.0000E+00  0.9200E+02
      7.983  0.0000E+00  0.9200E+02
      8.167  0.1325E+01  0.9205E+02
      8.352  0.3625E+01  0.9253E+02
      8.537  0.6980E+01  0.9353E+02
      8.722  0.7906E+01  0.9429E+02
      8.906  0.3948E+01  0.9590E+02
      9.091  0.0000E+00  0.9600E+02
      9.276  0.0000E+00  0.9600E+02
      9.460  0.0000E+00  0.9600E+02
      9.645  0.0000E+00  0.9600E+02
      9.830  0.0000E+00  0.9600E+02
     10.015  0.0000E+00  0.9600E+02
     10.199  0.0000E+00  0.9600E+02
     10.384  0.0000E+00  0.9600E+02
     10.569  0.0000E+00  0.9600E+02
     10.754  0.0000E+00  0.9600E+02
     10.938  0.0000E+00  0.9600E+02
     11.123  0.0000E+00  0.9600E+02
     11.308  0.0000E+00  0.9600E+02
     11.492  0.0000E+00  0.9600E+02
