       N       E                     dE             d eps       ncg     rms          rms(c)
DAV:   1     0.496857216938E+03    0.49686E+03   -0.28381E+04   768   0.130E+03
DAV:   2    -0.104302572430E+02   -0.50729E+03   -0.48310E+03   912   0.307E+02
DAV:   3    -0.720060180933E+02   -0.61576E+02   -0.61068E+02  1040   0.970E+01
DAV:   4    -0.787025644875E+02   -0.66965E+01   -0.66729E+01  1424   0.309E+01
DAV:   5    -0.795194966189E+02   -0.81693E+00   -0.81678E+00  1144   0.715E+00    0.230E+01
RMM:   6    -0.773696466931E+02    0.21498E+01   -0.63563E+00   920   0.584E+00    0.152E+01
RMM:   7    -0.769472318420E+02    0.42241E+00   -0.26136E+00   964   0.413E+00    0.411E+00
RMM:   8    -0.768730284468E+02    0.74203E-01   -0.24517E-01  1098   0.155E+00    0.573E-01
RMM:   9    -0.768661112788E+02    0.69172E-02   -0.34356E-02  1138   0.585E-01    0.231E-01
RMM:  10    -0.768664306089E+02   -0.31933E-03   -0.75499E-03  1336   0.247E-01    0.147E-01
RMM:  11    -0.768668154024E+02   -0.38479E-03   -0.37356E-03  1245   0.147E-01    0.510E-02
RMM:  12    -0.768669502650E+02   -0.13486E-03   -0.16332E-03  1236   0.107E-01    0.248E-02
RMM:  13    -0.768670347788E+02   -0.84514E-04   -0.93720E-04   915   0.760E-02    0.165E-02
RMM:  14    -0.768670743493E+02   -0.39570E-04   -0.43902E-04  1010   0.634E-02    0.345E-03
RMM:  15    -0.768670972428E+02   -0.22893E-04   -0.26913E-04   848   0.540E-02    0.271E-03
RMM:  16    -0.768671082199E+02   -0.10977E-04   -0.13890E-04   784   0.473E-02
   1 F= -.76867108E+02 E0= -.76867108E+02  d E =0.000000E+00
