 vasp.5.4.4.18Apr17-6-g9f103f2a35 (build Feb 28 2020 14:15:47) complex          
  
 executed on             LinuxIFC date 2022.08.07  09:09:47
 running on   64 total cores
 distrk:  each k-point on   64 cores,    1 groups
 distr:  one band on NCORES_PER_BAND=  16 cores,    4 groups


--------------------------------------------------------------------------------------------------------


 INCAR:
 POTCAR:    PAW P 26Mar2009                       
 POTCAR:    PAW S 27Mar2009                       
 POTCAR:    PAW Li_sv 10Sep2004                   
 POTCAR:    PAW P 26Mar2009                       
   VRHFIN =P : s2p3                                                             
   LEXCH  = CA                                                                  
   EATOM  =   176.5121 eV,   12.9733 Ry                                         
                                                                                
   TITEL  = PAW P 26Mar2009                                                     
   LULTRA =        F    use ultrasoft PP ?                                      
   IUNSCR =        1    unscreen: 0-lin 1-nonlin 2-no                           
   RPACOR =    1.500    partial core radius                                     
   POMASS =   30.974; ZVAL   =    5.000    mass and valenz                      
   RCORE  =    1.900    outmost cutoff radius                                   
   RWIGS  =    2.330; RWIGS  =    1.233    wigner-seitz radius (au A)           
   ENMAX  =  255.155; ENMIN  =  191.366 eV                                      
   ICORE  =        2    local potential                                         
   LCOR   =        T    correct aug charges                                     
   LPAW   =        T    paw PP                                                  
   EAUG   =  342.924                                                            
   DEXC   =    0.000                                                            
   RMAX   =    1.935    core radius for proj-oper                               
   RAUG   =    1.300    factor for augmentation sphere                          
   RDEP   =    1.931    radius for radial grids                                 
   RDEPT  =    1.780    core radius for aug-charge                              
                                                                                
   Atomic configuration                                                         
    6 entries                                                                   
     n  l   j            E        occ.                                          
     1  0  0.50     -2072.7761   2.0000                                         
     2  0  0.50      -172.9483   2.0000                                         
     2  1  1.50      -124.4644   6.0000                                         
     3  0  0.50       -14.0086   2.0000                                         
     3  1  0.50        -5.6037   3.0000                                         
     3  2  1.50        -6.8029   0.0000                                         
   Description                                                                  
     l       E           TYP  RCUT    TYP  RCUT                                 
     0    -14.0086211     23  1.900                                             
     0    -11.8189335     23  1.900                                             
     1     -5.6037292     23  1.900                                             
     1     -0.3527308     23  1.900                                             
     2     -6.8029130     23  1.900                                             
  local pseudopotential read in
  partial core-charges read in
  partial kinetic energy density read in
  atomic valenz-charges read in
  non local Contribution for L=           0  read in
    real space projection operators read in
  non local Contribution for L=           0  read in
    real space projection operators read in
  non local Contribution for L=           1  read in
    real space projection operators read in
  non local Contribution for L=           1  read in
    real space projection operators read in
    PAW grid and wavefunctions read in
 
   number of l-projection  operators is LMAX  =           4
   number of lm-projection operators is LMMAX =           8
 
 POTCAR:    PAW S 27Mar2009                       
   VRHFIN =S : s2p4                                                             
   LEXCH  = CA                                                                  
   EATOM  =   277.3745 eV,   20.3864 Ry                                         
                                                                                
   TITEL  = PAW S 27Mar2009                                                     
   LULTRA =        F    use ultrasoft PP ?                                      
   IUNSCR =        1    unscreen: 0-lin 1-nonlin 2-no                           
   RPACOR =    1.500    partial core radius                                     
   POMASS =   32.066; ZVAL   =    6.000    mass and valenz                      
   RCORE  =    1.900    outmost cutoff radius                                   
   RWIGS  =    2.200; RWIGS  =    1.164    wigner-seitz radius (au A)           
   ENMAX  =  258.602; ENMIN  =  193.952 eV                                      
   ICORE  =        2    local potential                                         
   LCOR   =        T    correct aug charges                                     
   LPAW   =        T    paw PP                                                  
   EAUG   =  335.092                                                            
   DEXC   =    0.000                                                            
   RMAX   =    1.942    core radius for proj-oper                               
   RAUG   =    1.300    factor for augmentation sphere                          
   RDEP   =    1.954    radius for radial grids                                 
   RDEPT  =    1.744    core radius for aug-charge                              
                                                                                
   Atomic configuration                                                         
    6 entries                                                                   
     n  l   j            E        occ.                                          
     1  0  0.50     -2393.1495   2.0000                                         
     2  0  0.50      -210.5411   2.0000                                         
     2  1  1.50      -156.4410   6.0000                                         
     3  0  0.50       -17.2664   2.0000                                         
     3  1  0.50        -7.1129   4.0000                                         
     3  2  1.50        -8.1635   0.0000                                         
   Description                                                                  
     l       E           TYP  RCUT    TYP  RCUT                                 
     0    -17.2664422     23  1.900                                             
     0    -15.8420823     23  1.900                                             
     1     -7.1129072     23  1.900                                             
     1     -2.8398274     23  1.900                                             
     2     -8.1634956     23  1.900                                             
  local pseudopotential read in
  partial core-charges read in
  partial kinetic energy density read in
  atomic valenz-charges read in
  non local Contribution for L=           0  read in
    real space projection operators read in
  non local Contribution for L=           0  read in
    real space projection operators read in
  non local Contribution for L=           1  read in
    real space projection operators read in
  non local Contribution for L=           1  read in
    real space projection operators read in
    PAW grid and wavefunctions read in
 
   number of l-projection  operators is LMAX  =           4
   number of lm-projection operators is LMMAX =           8
 
 POTCAR:    PAW Li_sv 10Sep2004                   
   VRHFIN =Li: 1s2s                                                             
   LEXCH  = CA                                                                  
   EATOM  =   199.5738 eV,   14.6683 Ry                                         
                                                                                
   TITEL  = PAW Li_sv 10Sep2004                                                 
   LULTRA =        F    use ultrasoft PP ?                                      
   IUNSCR =        0    unscreen: 0-lin 1-nonlin 2-no                           
   RPACOR =    0.000    partial core radius                                     
   POMASS =    7.010; ZVAL   =    3.000    mass and valenz                      
   RCORE  =    1.700    outmost cutoff radius                                   
   RWIGS  =    2.050; RWIGS  =    1.085    wigner-seitz radius (au A)           
   ENMAX  =  498.387; ENMIN  =  373.790 eV                                      
   ICORE  =        2    local potential                                         
   LCOR   =        T    correct aug charges                                     
   LPAW   =        T    paw PP                                                  
   EAUG   =  628.945                                                            
   RMAX   =    1.732    core radius for proj-oper                               
   RAUG   =    1.300    factor for augmentation sphere                          
   RDEP   =    1.728    radius for radial grids                                 
   RDEPT  =    1.329    core radius for aug-charge                              
                                                                                
   Atomic configuration                                                         
    4 entries                                                                   
     n  l   j            E        occ.                                          
     1  0  0.50       -51.0884   2.0000                                         
     2  0  0.50        -2.8766   1.0000                                         
     2  1  0.50        -2.8708   0.0000                                         
     3  2  1.50        -1.3606   0.0000                                         
   Description                                                                  
     l       E           TYP  RCUT    TYP  RCUT                                 
     0    -51.0884324     23  1.400                                             
     0     -2.8766458     23  1.700                                             
     1     -2.8708293     23  1.400                                             
     2     -1.3605826     23  1.400                                             
  local pseudopotential read in
  atomic valenz-charges read in
  non local Contribution for L=           0  read in
    real space projection operators read in
  non local Contribution for L=           0  read in
    real space projection operators read in
  non local Contribution for L=           1  read in
    real space projection operators read in
    PAW grid and wavefunctions read in
 
   number of l-projection  operators is LMAX  =           3
   number of lm-projection operators is LMMAX =           5
 
 Optimization of the real space projectors (new method)

 maximal supplied QI-value         = 19.84
 optimisation between [QCUT,QGAM] = [ 10.32, 20.83] = [ 29.81,121.55] Ry 
 Optimized for a Real-space Cutoff    1.39 Angstroem

   l    n(q)    QCUT    max X(q) W(low)/X(q) W(high)/X(q)  e(spline) 
   0      9    10.318   158.476    0.64E-04    0.80E-04    0.60E-07
   0      9    10.318   128.097    0.63E-04    0.79E-04    0.60E-07
   1      8    10.318    73.217    0.18E-03    0.19E-03    0.20E-06
   1      8    10.318    48.248    0.18E-03    0.19E-03    0.19E-06
 Optimization of the real space projectors (new method)

 maximal supplied QI-value         = 19.84
 optimisation between [QCUT,QGAM] = [ 10.32, 20.83] = [ 29.81,121.55] Ry 
 Optimized for a Real-space Cutoff    1.39 Angstroem

   l    n(q)    QCUT    max X(q) W(low)/X(q) W(high)/X(q)  e(spline) 
   0      9    10.318   180.455    0.73E-04    0.81E-04    0.62E-07
   0      9    10.318   157.733    0.72E-04    0.81E-04    0.62E-07
   1      8    10.318    66.201    0.18E-03    0.20E-03    0.20E-06
   1      8    10.318    49.617    0.18E-03    0.20E-03    0.20E-06
 Optimization of the real space projectors (new method)

 maximal supplied QI-value         = 22.11
 optimisation between [QCUT,QGAM] = [ 10.39, 20.78] = [ 30.24,120.96] Ry 
 Optimized for a Real-space Cutoff    1.20 Angstroem

   l    n(q)    QCUT    max X(q) W(low)/X(q) W(high)/X(q)  e(spline) 
   0      7    10.392    10.443    0.77E-04    0.41E-05    0.30E-07
   0      7    10.392     8.514    0.20E-03    0.36E-04    0.67E-07
   1      7    10.392     5.406    0.20E-03    0.20E-03    0.12E-06
  PAW P 26Mar2009                       :
 energy of atom  1       EATOM= -176.5121
 kinetic energy error for atom=    0.0021 (will be added to EATOM!!)
  PAW S 27Mar2009                       :
 energy of atom  2       EATOM= -277.3745
 kinetic energy error for atom=    0.0041 (will be added to EATOM!!)
  PAW Li_sv 10Sep2004                   :
 energy of atom  3       EATOM= -199.5738
 kinetic energy error for atom=    0.0564 (will be added to EATOM!!)
 
 
 POSCAR: Good luck                               
  positions in cartesian coordinates
  No initial velocities read in
 exchange correlation table for  LEXCH =        2
   RHO(1)=    0.500       N(1)  =     2000
   RHO(2)=  100.500       N(2)  =     4000
 


--------------------------------------------------------------------------------------------------------


 ion  position               nearest neighbor table
   1  0.000  0.772  0.417-   7 2.03   9 2.03   3 2.04   6 2.04
   2  0.500  0.228  0.917-   8 2.03  10 2.03   4 2.04   5 2.04
   3  0.209  0.611  0.290-   1 2.04  13 2.31  14 2.51  11 2.58  12 2.61
   4  0.291  0.389  0.790-   2 2.04  14 2.31  13 2.51  12 2.58  11 2.61
   5  0.709  0.389  0.790-   2 2.04  15 2.31  16 2.51  12 2.58  11 2.61
   6  0.791  0.611  0.290-   1 2.04  16 2.31  15 2.51  11 2.58  12 2.61
   7  0.000  0.075  0.281-   1 2.03  14 2.26  15 2.26
   8  0.500  0.925  0.781-   2 2.03  13 2.26  16 2.26
   9  0.000  0.793  0.759-   1 2.03  13 2.36  16 2.36  11 2.64
  10  0.500  0.207  0.259-   2 2.03  15 2.36  14 2.36  12 2.64
  11  0.000  0.435  0.005-   3 2.58   6 2.58   4 2.61   5 2.61   9 2.64
  12  0.500  0.565  0.505-   4 2.58   5 2.58   3 2.61   6 2.61  10 2.64
  13  0.267  0.769  0.944-   8 2.26   3 2.31   9 2.36   4 2.51
  14  0.233  0.231  0.444-   7 2.26   4 2.31  10 2.36   3 2.51
  15  0.767  0.231  0.444-   7 2.26   5 2.31  10 2.36   6 2.51
  16  0.733  0.769  0.944-   8 2.26   6 2.31   9 2.36   5 2.51
 
  LATTYP: Found a simple orthorhombic cell.
 ALAT       =     5.9352826647
 B/A-ratio  =     1.0333310484
 C/A-ratio  =     1.3086661733
  
  Lattice vectors:
  
 A1 = (   0.0000000000,   0.0000000000,  -5.9352826647)
 A2 = (   0.0000000000,  -6.1331118587,   0.0000000000)
 A3 = (  -7.7673036520,   0.0000000000,   0.0000000000)


Analysis of symmetry for initial positions (statically):
=====================================================================
 Subroutine PRICEL returns:
 Original cell was already a primitive cell.
 

 Routine SETGRP: Setting up the symmetry group for a 
 simple orthorhombic supercell.


 Subroutine GETGRP returns: Found  4 space group operations
 (whereof  2 operations were pure point group operations)
 out of a pool of  8 trial point group operations.


The static configuration has the point symmetry C_1h.
 The point group associated with its full space group is C_2v.


Analysis of symmetry for dynamics (positions and initial velocities):
=====================================================================
 Subroutine PRICEL returns:
 Original cell was already a primitive cell.
 

 Routine SETGRP: Setting up the symmetry group for a 
 simple orthorhombic supercell.


 Subroutine GETGRP returns: Found  4 space group operations
 (whereof  2 operations were pure point group operations)
 out of a pool of  8 trial point group operations.


The dynamic configuration has the point symmetry C_1h.
 The point group associated with its full space group is C_2v.


 Subroutine INISYM returns: Found  4 space group operations
 (whereof  2 operations are pure point group operations),
 and found     1 'primitive' translations

 
 
 KPOINTS: Automatic mesh                          

Automatic generation of k-mesh.
Space group operators:
 irot       det(A)        alpha          n_x          n_y          n_z        tau_x        tau_y        tau_z
    1     1.000000     0.000000     1.000000     0.000000     0.000000     0.000000     0.000000     0.000000
    2    -1.000000   180.000000     1.000000     0.000000     0.000000     0.000000     0.000000     0.000000
    3    -1.000000   180.000000     0.000000     1.000000     0.000000    -0.500000     0.000000    -0.500000
    4     1.000000   180.000000     0.000000     0.000000     1.000000    -0.500000     0.000000    -0.500000
 
 Subroutine IBZKPT returns following result:
 ===========================================
 
 Found      8 irreducible k-points:
 
 Following reciprocal coordinates:
            Coordinates               Weight
  0.000000  0.000000  0.000000      1.000000
  0.333333  0.000000  0.000000      2.000000
  0.000000  0.333333  0.000000      2.000000
  0.333333  0.333333  0.000000      4.000000
  0.000000  0.000000  0.333333      2.000000
  0.333333  0.000000  0.333333      4.000000
  0.000000  0.333333  0.333333      4.000000
  0.333333  0.333333  0.333333      8.000000
 
 Following cartesian coordinates:
            Coordinates               Weight
  0.000000  0.000000  0.000000      1.000000
  0.042915  0.000000  0.000000      2.000000
  0.000000  0.054350  0.000000      2.000000
  0.042915  0.054350  0.000000      4.000000
  0.000000  0.000000  0.056161      2.000000
  0.042915  0.000000  0.056161      4.000000
  0.000000  0.054350  0.056161      4.000000
  0.042915  0.054350  0.056161      8.000000
 
 TETIRR: Found     70 inequivalent tetrahedra from      162


--------------------------------------------------------------------------------------------------------




 Dimension of arrays:
   k-points           NKPTS =      8   k-points in BZ     NKDIM =      8   number of bands    NBANDS=     48
   number of dos      NEDOS =    301   number of ions     NIONS =     16
   non local maximal  LDIM  =      4   non local SUM 2l+1 LMDIM =      8
   total plane-waves  NPLWV =  90720
   max r-space proj   IRMAX =   3641   max aug-charges    IRDMAX=  10307
   dimension x,y,z NGX =    54 NGY =   42 NGZ =   40
   dimension x,y,z NGXF=   108 NGYF=   84 NGZF=   80
   support grid    NGXF=   108 NGYF=   84 NGZF=   80
   ions per type =               2   8   6
   NGX,Y,Z   is equivalent  to a cutoff of  11.56, 11.38, 11.20 a.u.
   NGXF,Y,Z  is equivalent  to a cutoff of  23.12, 22.77, 22.41 a.u.

 SYSTEM =  unknown system                          
 POSCAR =  Good luck                               

 Startparameter for this run:
   NWRITE =      2    write-flag & timer
   PREC   = accura    normal or accurate (medium, high low for compatibility)
   ISTART =      0    job   : 0-new  1-cont  2-samecut
   ICHARG =      2    charge: 1-file 2-atom 10-const
   ISPIN  =      1    spin polarized calculation?
   LNONCOLLINEAR =      F non collinear calculations
   LSORBIT =      F    spin-orbit coupling
   INIWAV =      1    electr: 0-lowe 1-rand  2-diag
   LASPH  =      F    aspherical Exc in radial PAW
   METAGGA=      F    non-selfconsistent MetaGGA calc.

 Electronic Relaxation 1
   ENCUT  =  420.0 eV  30.87 Ry    5.56 a.u.  12.98 10.25  9.92*2*pi/ulx,y,z
   ENINI  =  420.0     initial cutoff
   ENAUG  =  628.9 eV  augmentation charge cutoff
   NELM   =    100;   NELMIN=  2; NELMDL= -5     # of ELM steps 
   EDIFF  = 0.2E-04   stopping-criterion for ELM
   LREAL  =      T    real-space projection
   NLSPLINE    = F    spline interpolate recip. space projectors
   LCOMPAT=      F    compatible to vasp.4.4
   GGA_COMPAT  = T    GGA compatible to vasp.4.4-vasp.4.6
   LMAXPAW     = -100 max onsite density
   LMAXMIX     =    2 max onsite mixed and CHGCAR
   VOSKOWN=      0    Vosko Wilk Nusair interpolation
   ROPT   =   -0.00025  -0.00025  -0.00025
 Ionic relaxation
   EDIFFG = 0.2E-03   stopping-criterion for IOM
   NSW    =      0    number of steps for IOM
   NBLOCK =      1;   KBLOCK =      1    inner block; outer block 
   IBRION =     -1    ionic relax: 0-MD 1-quasi-New 2-CG
   NFREE  =      1    steps in history (QN), initial steepest desc. (CG)
   ISIF   =      7    stress and relaxation
   IWAVPR =     10    prediction:  0-non 1-charg 2-wave 3-comb
   ISYM   =      2    0-nonsym 1-usesym 2-fastsym
   LCORR  =      T    Harris-Foulkes like correction to forces

   POTIM  = 0.5000    time-step for ionic-motion
   TEIN   =    0.0    initial temperature
   TEBEG  =    0.0;   TEEND  =   0.0 temperature during run
   SMASS  =  -3.00    Nose mass-parameter (am)
   estimated Nose-frequenzy (Omega)   =  0.10E-29 period in steps =****** mass=  -0.138E-26a.u.
   SCALEE = 1.0000    scale energy and forces
   NPACO  =    256;   APACO  = 16.0  distance and # of slots for P.C.
   PSTRESS=    0.0 pullay stress

  Mass of Ions in am
   POMASS =  30.97 32.07  7.01
  Ionic Valenz
   ZVAL   =   5.00  6.00  3.00
  Atomic Wigner-Seitz radii
   RWIGS  =  -1.00 -1.00 -1.00
  virtual crystal weights 
   VCA    =   1.00  1.00  1.00
   NELECT =      76.0000    total number of electrons
   NUPDOWN=      -1.0000    fix difference up-down

 DOS related values:
   EMIN   =  10.00;   EMAX   =-10.00  energy-range for DOS
   EFERMI =   0.00
   ISMEAR =    -5;   SIGMA  =   0.20  broadening in eV -4-tet -1-fermi 0-gaus

 Electronic relaxation 2 (details)
   IALGO  =     68    algorithm
   LDIAG  =      T    sub-space diagonalisation (order eigenvalues)
   LSUBROT=      F    optimize rotation matrix (better conditioning)
   TURBO    =      0    0=normal 1=particle mesh
   IRESTART =      0    0=no restart 2=restart with 2 vectors
   NREBOOT  =      0    no. of reboots
   NMIN     =      0    reboot dimension
   EREF     =   0.00    reference energy to select bands
   IMIX   =      4    mixing-type and parameters
     AMIX     =   0.40;   BMIX     =  1.00
     AMIX_MAG =   1.60;   BMIX_MAG =  1.00
     AMIN     =   0.10
     WC   =   100.;   INIMIX=   1;  MIXPRE=   1;  MAXMIX= -45

 Intra band minimization:
   WEIMIN = 0.0000     energy-eigenvalue tresh-hold
   EBREAK =  0.10E-06  absolut break condition
   DEPER  =   0.30     relativ break condition  

   TIME   =   0.40     timestep for ELM

  volume/ion in A,a.u.               =      17.67       119.25
  Fermi-wavevector in a.u.,A,eV,Ry     =   1.056530  1.996552 15.187580  1.116256
  Thomas-Fermi vector in A             =   2.191769
 
 Write flags
   LWAVE        =      F    write WAVECAR
   LDOWNSAMPLE  =      F    k-point downsampling of WAVECAR
   LCHARG       =      F    write CHGCAR
   LVTOT        =      F    write LOCPOT, total local potential
   LVHAR        =      F    write LOCPOT, Hartree potential only
   LELF         =      F    write electronic localiz. function (ELF)
   LORBIT       =      0    0 simple, 1 ext, 2 COOP (PROOUT), +10 PAW based schemes


 Dipole corrections
   LMONO  =      F    monopole corrections only (constant potential shift)
   LDIPOL =      F    correct potential (dipole corrections)
   IDIPOL =      0    1-x, 2-y, 3-z, 4-all directions 
   EPSILON=  1.0000000 bulk dielectric constant

 Exchange correlation treatment:
   GGA     =    --    GGA type
   LEXCH   =     2    internal setting for exchange type
   VOSKOWN=      0    Vosko Wilk Nusair interpolation
   LHFCALC =     F    Hartree Fock is set to
   LHFONE  =     F    Hartree Fock one center treatment
   AEXX    =    0.0000 exact exchange contribution

 Linear response parameters
   LEPSILON=     F    determine dielectric tensor
   LRPA    =     F    only Hartree local field effects (RPA)
   LNABLA  =     F    use nabla operator in PAW spheres
   LVEL    =     F    velocity operator in full k-point grid
   LINTERFAST=   F  fast interpolation
   KINTER  =     0    interpolate to denser k-point grid
   CSHIFT  =0.1000    complex shift for real part using Kramers Kronig
   OMEGAMAX=  -1.0    maximum frequency
   DEG_THRESHOLD= 0.2000000E-02 threshold for treating states as degnerate
   RTIME   =   -0.100 relaxation time in fs
  (WPLASMAI=    0.000 imaginary part of plasma frequency in eV, 0.658/RTIME)
   DFIELD  = 0.0000000 0.0000000 0.0000000 field for delta impulse in time
 
 Orbital magnetization related:
   ORBITALMAG=     F  switch on orbital magnetization
   LCHIMAG   =     F  perturbation theory with respect to B field
   DQ        =  0.001000  dq finite difference perturbation B field
   LLRAUG    =     F  two centre corrections for induced B field



--------------------------------------------------------------------------------------------------------


 Static calculation
 charge density and potential will be updated during run
 non-spin polarized calculation
 RMM-DIIS sequential band-by-band and
  variant of blocked Davidson during initial phase
 perform sub-space diagonalisation
    before iterative eigenvector-optimisation
 modified Broyden-mixing scheme, WC =      100.0
 initial mixing is a Kerker type mixing with AMIX =  0.4000 and BMIX =      1.0000
 Hartree-type preconditioning will be used
 using additional bands           10
 real space projection scheme for non local part
 use partial core corrections
 calculate Harris-corrections to forces 
   (improved forces if not selfconsistent)
 use of overlap-Matrix (Vanderbilt PP)
 Fermi weights with tetrahedron method with Bloechl corrections


--------------------------------------------------------------------------------------------------------


  energy-cutoff  :      420.00
  volume of cell :      282.74
      direct lattice vectors                 reciprocal lattice vectors
     7.767303652  0.000000000  0.000000000     0.128744806  0.000000000  0.000000000
     0.000000000  6.133111859  0.000000000     0.000000000  0.163049366  0.000000000
     0.000000000  0.000000000  5.935282665     0.000000000  0.000000000  0.168483972

  length of vectors
     7.767303652  6.133111859  5.935282665     0.128744806  0.163049366  0.168483972


 
 k-points in units of 2pi/SCALE and weight: Automatic mesh                          
   0.00000000  0.00000000  0.00000000       0.037
   0.04291494  0.00000000  0.00000000       0.074
   0.00000000  0.05434979  0.00000000       0.074
   0.04291494  0.05434979  0.00000000       0.148
   0.00000000  0.00000000  0.05616132       0.074
   0.04291494  0.00000000  0.05616132       0.148
   0.00000000  0.05434979  0.05616132       0.148
   0.04291494  0.05434979  0.05616132       0.296
 
 k-points in reciprocal lattice and weights: Automatic mesh                          
   0.00000000  0.00000000  0.00000000       0.037
   0.33333333  0.00000000  0.00000000       0.074
   0.00000000  0.33333333  0.00000000       0.074
   0.33333333  0.33333333  0.00000000       0.148
   0.00000000  0.00000000  0.33333333       0.074
   0.33333333  0.00000000  0.33333333       0.148
   0.00000000  0.33333333  0.33333333       0.148
   0.33333333  0.33333333  0.33333333       0.296
 
 position of ions in fractional coordinates (direct lattice) 
   0.00000000  0.77196583  0.41673988
   0.50000000  0.22803417  0.91673988
   0.20882731  0.61114499  0.28950263
   0.29117269  0.38885501  0.78950263
   0.70882731  0.38885501  0.78950263
   0.79117269  0.61114499  0.28950263
   0.00000000  0.07533950  0.28086705
   0.50000000  0.92466050  0.78086705
   0.00000000  0.79290176  0.75856337
   0.50000000  0.20709824  0.25856337
   0.00000000  0.43535495  0.00478500
   0.50000000  0.56464505  0.50478500
   0.26726880  0.76878310  0.94426718
   0.23273120  0.23121690  0.44426718
   0.76726880  0.23121690  0.44426718
   0.73273120  0.76878310  0.94426718
 
 position of ions in cartesian coordinates  (Angst):
   0.00000000  4.73455278  2.47346899
   3.88365183  1.39855907  5.44111033
   1.62202515  3.74822056  1.71827996
   2.26162668  2.38489130  4.68592129
   5.50567697  2.38489130  4.68592129
   6.14527851  3.74822056  1.71827996
   0.00000000  0.46206555  1.66702534
   3.88365183  5.67104631  4.63466667
   0.00000000  4.86295521  4.50228804
   3.88365183  1.27015665  1.53464671
   0.00000000  2.67008058  0.02840032
   3.88365183  3.46303128  2.99604166
   2.07595796  4.71503276  5.60449260
   1.80769386  1.41807910  2.63685127
   5.95960979  1.41807910  2.63685127
   5.69134569  4.71503276  5.60449260
 


--------------------------------------------------------------------------------------------------------


 k-point  1 :   0.0000 0.0000 0.0000  plane waves:    5563
 k-point  2 :   0.3333 0.0000 0.0000  plane waves:    5514
 k-point  3 :   0.0000 0.3333 0.0000  plane waves:    5516
 k-point  4 :   0.3333 0.3333 0.0000  plane waves:    5528
 k-point  5 :   0.0000 0.0000 0.3333  plane waves:    5514
 k-point  6 :   0.3333 0.0000 0.3333  plane waves:    5526
 k-point  7 :   0.0000 0.3333 0.3333  plane waves:    5520
 k-point  8 :   0.3333 0.3333 0.3333  plane waves:    5534

 maximum and minimum number of plane-waves per node :       363      334

 maximum number of plane-waves:      5563
 maximum index in each direction: 
   IXMAX=   12   IYMAX=   10   IZMAX=    9
   IXMIN=  -13   IYMIN=  -10   IZMIN=  -10


 real space projection operators:
  total allocation   :       2701.66 KBytes
  max/ min on nodes  :        206.45        145.27


 parallel 3D FFT for wavefunctions:
    minimum data exchange during FFTs selected (reduces bandwidth)
 parallel 3D FFT for charge:
    minimum data exchange during FFTs selected (reduces bandwidth)


 total amount of memory used by VASP MPI-rank0    33587. kBytes
=======================================================================

   base      :      30000. kBytes
   nonlr-proj:       1235. kBytes
   fftplans  :        656. kBytes
   grid      :       1147. kBytes
   one-center:          3. kBytes
   wavefun   :        546. kBytes
 
     INWAV:  cpu time    0.0000: real time    0.0000
 Broyden mixing: mesh for mixing (old mesh)
   NGX = 25   NGY = 21   NGZ = 19
  (NGX  =108   NGY  = 84   NGZ  = 80)
  gives a total of   9975 points

 initial charge density was supplied:
 charge density of overlapping atoms calculated
 number of electron      76.0000000 magnetization 
 keeping initial charge density in first step


--------------------------------------------------------------------------------------------------------


 Maximum index for non-local projection operator          440
 Maximum index for augmentation-charges          546 (set IRDMAX)


--------------------------------------------------------------------------------------------------------


 First call to EWALD:  gamma=   0.270
 Maximum number of real-space cells 2x 3x 3
 Maximum number of reciprocal cells 3x 3x 3

    FEWALD:  cpu time    0.0018: real time    0.0019


--------------------------------------- Iteration      1(   1)  ---------------------------------------


    POTLOK:  cpu time    0.0058: real time    0.0094
    SETDIJ:  cpu time    0.0037: real time    0.0050
     EDDAV:  cpu time    0.2054: real time    0.2135
 BZINTS: Fermi energy: 14.984091; 76.007008 electrons
         Band energy:-110.857522;  BLOECHL correction: -0.009556
       DOS:  cpu time    0.0054: real time    0.0059
    --------------------------------------------
      LOOP:  cpu time    0.2203: real time    0.2338

 eigenvalue-minimisations  :   768
 total energy-change (2. order) : 0.4994990E+03  (-0.2840346E+04)
 number of electron      76.0000000 magnetization 
 augmentation part       76.0000000 magnetization 

 Free energy of the ion-electron system (eV)
  ---------------------------------------------------
  alpha Z        PSCENC =        69.79103197
  Ewald energy   TEWEN  =     -2727.23370696
  -Hartree energ DENC   =      -636.66463090
  -exchange      EXHF   =         0.00000000
  -V(xc)+E(xc)   XCENC  =       182.27373616
  PAW double counting   =      2494.22442938    -2541.12215007
  entropy T*S    EENTRO =         0.00000000
  eigenvalues    EBANDS =      -110.85752234
  atomic energy  EATOM  =      3769.08782378
  Solvation  Ediel_sol  =         0.00000000
  ---------------------------------------------------
  free energy    TOTEN  =       499.49901102 eV

  energy without entropy =      499.49901102  energy(sigma->0) =      499.49901102


--------------------------------------------------------------------------------------------------------




--------------------------------------- Iteration      1(   2)  ---------------------------------------


     EDDAV:  cpu time    0.1960: real time    0.1964
 BZINTS: Fermi energy:  4.935619; 76.000000 electrons
         Band energy:-620.346118;  BLOECHL correction:  0.000000
       DOS:  cpu time    0.0007: real time    0.0007
    --------------------------------------------
      LOOP:  cpu time    0.1967: real time    0.1971

 eigenvalue-minimisations  :   912
 total energy-change (2. order) :-0.5094886E+03  (-0.4850701E+03)
 number of electron      76.0000000 magnetization 
 augmentation part       76.0000000 magnetization 

 Free energy of the ion-electron system (eV)
  ---------------------------------------------------
  alpha Z        PSCENC =        69.79103197
  Ewald energy   TEWEN  =     -2727.23370696
  -Hartree energ DENC   =      -636.66463090
  -exchange      EXHF   =         0.00000000
  -V(xc)+E(xc)   XCENC  =       182.27373616
  PAW double counting   =      2494.22442938    -2541.12215007
  entropy T*S    EENTRO =         0.00000000
  eigenvalues    EBANDS =      -620.34611766
  atomic energy  EATOM  =      3769.08782378
  Solvation  Ediel_sol  =         0.00000000
  ---------------------------------------------------
  free energy    TOTEN  =        -9.98958430 eV

  energy without entropy =       -9.98958430  energy(sigma->0) =       -9.98958430


--------------------------------------------------------------------------------------------------------




--------------------------------------- Iteration      1(   3)  ---------------------------------------


     EDDAV:  cpu time    0.2186: real time    0.2186
 BZINTS: Fermi energy:  2.067868; 76.000000 electrons
         Band energy:-682.218370;  BLOECHL correction:  0.000000
       DOS:  cpu time    0.0007: real time    0.0007
    --------------------------------------------
      LOOP:  cpu time    0.2193: real time    0.2193

 eigenvalue-minimisations  :  1056
 total energy-change (2. order) :-0.6187225E+02  (-0.6137360E+02)
 number of electron      76.0000000 magnetization 
 augmentation part       76.0000000 magnetization 

 Free energy of the ion-electron system (eV)
  ---------------------------------------------------
  alpha Z        PSCENC =        69.79103197
  Ewald energy   TEWEN  =     -2727.23370696
  -Hartree energ DENC   =      -636.66463090
  -exchange      EXHF   =         0.00000000
  -V(xc)+E(xc)   XCENC  =       182.27373616
  PAW double counting   =      2494.22442938    -2541.12215007
  entropy T*S    EENTRO =         0.00000000
  eigenvalues    EBANDS =      -682.21837012
  atomic energy  EATOM  =      3769.08782378
  Solvation  Ediel_sol  =         0.00000000
  ---------------------------------------------------
  free energy    TOTEN  =       -71.86183675 eV

  energy without entropy =      -71.86183675  energy(sigma->0) =      -71.86183675


--------------------------------------------------------------------------------------------------------




--------------------------------------- Iteration      1(   4)  ---------------------------------------


     EDDAV:  cpu time    0.2798: real time    0.2798
 BZINTS: Fermi energy:  1.987790; 76.000000 electrons
         Band energy:-689.097237;  BLOECHL correction:  0.000000
       DOS:  cpu time    0.0007: real time    0.0007
    --------------------------------------------
      LOOP:  cpu time    0.2805: real time    0.2805

 eigenvalue-minimisations  :  1424
 total energy-change (2. order) :-0.6878867E+01  (-0.6854758E+01)
 number of electron      76.0000000 magnetization 
 augmentation part       76.0000000 magnetization 

 Free energy of the ion-electron system (eV)
  ---------------------------------------------------
  alpha Z        PSCENC =        69.79103197
  Ewald energy   TEWEN  =     -2727.23370696
  -Hartree energ DENC   =      -636.66463090
  -exchange      EXHF   =         0.00000000
  -V(xc)+E(xc)   XCENC  =       182.27373616
  PAW double counting   =      2494.22442938    -2541.12215007
  entropy T*S    EENTRO =         0.00000000
  eigenvalues    EBANDS =      -689.09723722
  atomic energy  EATOM  =      3769.08782378
  Solvation  Ediel_sol  =         0.00000000
  ---------------------------------------------------
  free energy    TOTEN  =       -78.74070385 eV

  energy without entropy =      -78.74070385  energy(sigma->0) =      -78.74070385


--------------------------------------------------------------------------------------------------------




--------------------------------------- Iteration      1(   5)  ---------------------------------------


     EDDAV:  cpu time    0.2382: real time    0.2382
 BZINTS: Fermi energy:  2.016397; 76.000000 electrons
         Band energy:-689.928886;  BLOECHL correction:  0.000000
       DOS:  cpu time    0.0008: real time    0.0008
    CHARGE:  cpu time    0.0187: real time    0.0188
    MIXING:  cpu time    0.0007: real time    0.0027
    --------------------------------------------
      LOOP:  cpu time    0.2584: real time    0.2605

 eigenvalue-minimisations  :  1144
 total energy-change (2. order) :-0.8316491E+00  (-0.8314980E+00)
 number of electron      76.0000037 magnetization 
 augmentation part       -1.7857286 magnetization 

 Broyden mixing:
  rms(total) = 0.22887E+01    rms(broyden)= 0.22881E+01
  rms(prec ) = 0.25319E+01
  weight for this iteration     100.00

 Free energy of the ion-electron system (eV)
  ---------------------------------------------------
  alpha Z        PSCENC =        69.79103197
  Ewald energy   TEWEN  =     -2727.23370696
  -Hartree energ DENC   =      -636.66463090
  -exchange      EXHF   =         0.00000000
  -V(xc)+E(xc)   XCENC  =       182.27373616
  PAW double counting   =      2494.22442938    -2541.12215007
  entropy T*S    EENTRO =         0.00000000
  eigenvalues    EBANDS =      -689.92888630
  atomic energy  EATOM  =      3769.08782378
  Solvation  Ediel_sol  =         0.00000000
  ---------------------------------------------------
  free energy    TOTEN  =       -79.57235294 eV

  energy without entropy =      -79.57235294  energy(sigma->0) =      -79.57235294


--------------------------------------------------------------------------------------------------------




--------------------------------------- Iteration      1(   6)  ---------------------------------------


    POTLOK:  cpu time    0.0043: real time    0.0043
    SETDIJ:  cpu time    0.0014: real time    0.0014
    EDDIAG:  cpu time    0.0513: real time    0.0524
  RMM-DIIS:  cpu time    0.0953: real time    0.0953
    ORTHCH:  cpu time    0.0068: real time    0.0068
 BZINTS: Fermi energy:  2.420153; 76.000000 electrons
         Band energy:-672.681995;  BLOECHL correction:  0.000000
       DOS:  cpu time    0.0008: real time    0.0008
    CHARGE:  cpu time    0.0165: real time    0.0165
    MIXING:  cpu time    0.0005: real time    0.0005
    --------------------------------------------
      LOOP:  cpu time    0.1769: real time    0.1781

 eigenvalue-minimisations  :   905
 total energy-change (2. order) : 0.2247892E+01  (-0.6785138E+00)
 number of electron      76.0000036 magnetization 
 augmentation part       -1.7362333 magnetization 

 Broyden mixing:
  rms(total) = 0.15176E+01    rms(broyden)= 0.15176E+01
  rms(prec ) = 0.15800E+01
  weight for this iteration     100.00

 eigenvalues of (default mixing * dielectric matrix)
  average eigenvalue GAMMA=   2.4462
  2.4462

 Free energy of the ion-electron system (eV)
  ---------------------------------------------------
  alpha Z        PSCENC =        69.79103197
  Ewald energy   TEWEN  =     -2727.23370696
  -Hartree energ DENC   =      -651.56699762
  -exchange      EXHF   =         0.00000000
  -V(xc)+E(xc)   XCENC  =       183.90282341
  PAW double counting   =      4001.36001252    -4049.98345275
  entropy T*S    EENTRO =         0.00000000
  eigenvalues    EBANDS =      -672.68199518
  atomic energy  EATOM  =      3769.08782378
  Solvation  Ediel_sol  =         0.00000000
  ---------------------------------------------------
  free energy    TOTEN  =       -77.32446082 eV

  energy without entropy =      -77.32446082  energy(sigma->0) =      -77.32446082


--------------------------------------------------------------------------------------------------------




--------------------------------------- Iteration      1(   7)  ---------------------------------------


    POTLOK:  cpu time    0.0041: real time    0.0041
    SETDIJ:  cpu time    0.0014: real time    0.0014
    EDDIAG:  cpu time    0.0512: real time    0.0512
  RMM-DIIS:  cpu time    0.0996: real time    0.0996
    ORTHCH:  cpu time    0.0068: real time    0.0068
 BZINTS: Fermi energy:  2.699282; 76.000000 electrons
         Band energy:-657.027840;  BLOECHL correction:  0.000000
       DOS:  cpu time    0.0007: real time    0.0007
    CHARGE:  cpu time    0.0166: real time    0.0166
    MIXING:  cpu time    0.0006: real time    0.0006
    --------------------------------------------
      LOOP:  cpu time    0.1809: real time    0.1809

 eigenvalue-minimisations  :   951
 total energy-change (2. order) : 0.4478507E+00  (-0.2609521E+00)
 number of electron      76.0000036 magnetization 
 augmentation part       -1.6985931 magnetization 

 Broyden mixing:
  rms(total) = 0.43293E+00    rms(broyden)= 0.43292E+00
  rms(prec ) = 0.45739E+00
  weight for this iteration     100.00

 eigenvalues of (default mixing * dielectric matrix)
  average eigenvalue GAMMA=   1.9162
  1.4000  2.4324

 Free energy of the ion-electron system (eV)
  ---------------------------------------------------
  alpha Z        PSCENC =        69.79103197
  Ewald energy   TEWEN  =     -2727.23370696
  -Hartree energ DENC   =      -666.84266227
  -exchange      EXHF   =         0.00000000
  -V(xc)+E(xc)   XCENC  =       185.51237209
  PAW double counting   =      6730.94736245    -6781.11099071
  entropy T*S    EENTRO =         0.00000000
  eigenvalues    EBANDS =      -657.02784047
  atomic energy  EATOM  =      3769.08782378
  Solvation  Ediel_sol  =         0.00000000
  ---------------------------------------------------
  free energy    TOTEN  =       -76.87661011 eV

  energy without entropy =      -76.87661011  energy(sigma->0) =      -76.87661011


--------------------------------------------------------------------------------------------------------




--------------------------------------- Iteration      1(   8)  ---------------------------------------


    POTLOK:  cpu time    0.0040: real time    0.0040
    SETDIJ:  cpu time    0.0013: real time    0.0013
    EDDIAG:  cpu time    0.0506: real time    0.0506
  RMM-DIIS:  cpu time    0.1154: real time    0.1154
    ORTHCH:  cpu time    0.0067: real time    0.0067
 BZINTS: Fermi energy:  2.666639; 76.000000 electrons
         Band energy:-656.125667;  BLOECHL correction:  0.000000
       DOS:  cpu time    0.0008: real time    0.0008
    CHARGE:  cpu time    0.0166: real time    0.0166
    MIXING:  cpu time    0.0006: real time    0.0006
    --------------------------------------------
      LOOP:  cpu time    0.1961: real time    0.1961

 eigenvalue-minimisations  :  1075
 total energy-change (2. order) : 0.7353215E-01  (-0.2508875E-01)
 number of electron      76.0000036 magnetization 
 augmentation part       -1.7224647 magnetization 

 Broyden mixing:
  rms(total) = 0.55588E-01    rms(broyden)= 0.55552E-01
  rms(prec ) = 0.69639E-01
  weight for this iteration     100.00

 eigenvalues of (default mixing * dielectric matrix)
  average eigenvalue GAMMA=   1.6892
  1.0756  2.2588  1.7333

 Free energy of the ion-electron system (eV)
  ---------------------------------------------------
  alpha Z        PSCENC =        69.79103197
  Ewald energy   TEWEN  =     -2727.23370696
  -Hartree energ DENC   =      -667.69543789
  -exchange      EXHF   =         0.00000000
  -V(xc)+E(xc)   XCENC  =       185.64066857
  PAW double counting   =      7584.07403571    -7634.34182568
  entropy T*S    EENTRO =         0.00000000
  eigenvalues    EBANDS =      -656.12566747
  atomic energy  EATOM  =      3769.08782378
  Solvation  Ediel_sol  =         0.00000000
  ---------------------------------------------------
  free energy    TOTEN  =       -76.80307796 eV

  energy without entropy =      -76.80307796  energy(sigma->0) =      -76.80307796


--------------------------------------------------------------------------------------------------------




--------------------------------------- Iteration      1(   9)  ---------------------------------------


    POTLOK:  cpu time    0.0039: real time    0.0039
    SETDIJ:  cpu time    0.0014: real time    0.0014
    EDDIAG:  cpu time    0.0510: real time    0.0510
  RMM-DIIS:  cpu time    0.1212: real time    0.1212
    ORTHCH:  cpu time    0.0069: real time    0.0069
 BZINTS: Fermi energy:  2.667822; 76.000000 electrons
         Band energy:-657.191678;  BLOECHL correction:  0.000000
       DOS:  cpu time    0.0008: real time    0.0008
    CHARGE:  cpu time    0.0169: real time    0.0169
    MIXING:  cpu time    0.0005: real time    0.0005
    --------------------------------------------
      LOOP:  cpu time    0.2026: real time    0.2027

 eigenvalue-minimisations  :  1132
 total energy-change (2. order) : 0.7319182E-02  (-0.3063533E-02)
 number of electron      76.0000036 magnetization 
 augmentation part       -1.7367994 magnetization 

 Broyden mixing:
  rms(total) = 0.23746E-01    rms(broyden)= 0.23729E-01
  rms(prec ) = 0.25117E-01
  weight for this iteration     100.00

 eigenvalues of (default mixing * dielectric matrix)
  average eigenvalue GAMMA=   1.7708
  2.1002  2.1002  1.2665  1.6162

 Free energy of the ion-electron system (eV)
  ---------------------------------------------------
  alpha Z        PSCENC =        69.79103197
  Ewald energy   TEWEN  =     -2727.23370696
  -Hartree energ DENC   =      -666.60280541
  -exchange      EXHF   =         0.00000000
  -V(xc)+E(xc)   XCENC  =       185.58086644
  PAW double counting   =      7490.55729903    -7540.78458962
  entropy T*S    EENTRO =         0.00000000
  eigenvalues    EBANDS =      -657.19167800
  atomic energy  EATOM  =      3769.08782378
  Solvation  Ediel_sol  =         0.00000000
  ---------------------------------------------------
  free energy    TOTEN  =       -76.79575877 eV

  energy without entropy =      -76.79575877  energy(sigma->0) =      -76.79575877


--------------------------------------------------------------------------------------------------------




--------------------------------------- Iteration      1(  10)  ---------------------------------------


    POTLOK:  cpu time    0.0039: real time    0.0039
    SETDIJ:  cpu time    0.0014: real time    0.0013
    EDDIAG:  cpu time    0.0516: real time    0.0516
  RMM-DIIS:  cpu time    0.1477: real time    0.1477
    ORTHCH:  cpu time    0.0069: real time    0.0069
 BZINTS: Fermi energy:  2.669097; 76.000000 electrons
         Band energy:-656.935241;  BLOECHL correction:  0.000000
       DOS:  cpu time    0.0008: real time    0.0008
    CHARGE:  cpu time    0.0171: real time    0.0171
    MIXING:  cpu time    0.0009: real time    0.0009
    --------------------------------------------
      LOOP:  cpu time    0.2303: real time    0.2303

 eigenvalue-minimisations  :  1322
 total energy-change (2. order) :-0.2506852E-03  (-0.6145384E-03)
 number of electron      76.0000036 magnetization 
 augmentation part       -1.7407289 magnetization 

 Broyden mixing:
  rms(total) = 0.13403E-01    rms(broyden)= 0.13388E-01
  rms(prec ) = 0.14093E-01
  weight for this iteration     100.00

 eigenvalues of (default mixing * dielectric matrix)
  average eigenvalue GAMMA=   1.8117
  2.4550  2.4550  1.9778  1.2914  0.8793

 Free energy of the ion-electron system (eV)
  ---------------------------------------------------
  alpha Z        PSCENC =        69.79103197
  Ewald energy   TEWEN  =     -2727.23370696
  -Hartree energ DENC   =      -666.86279205
  -exchange      EXHF   =         0.00000000
  -V(xc)+E(xc)   XCENC  =       185.60364272
  PAW double counting   =      7464.42158588    -7514.66835404
  entropy T*S    EENTRO =         0.00000000
  eigenvalues    EBANDS =      -656.93524076
  atomic energy  EATOM  =      3769.08782378
  Solvation  Ediel_sol  =         0.00000000
  ---------------------------------------------------
  free energy    TOTEN  =       -76.79600946 eV

  energy without entropy =      -76.79600946  energy(sigma->0) =      -76.79600946


--------------------------------------------------------------------------------------------------------




--------------------------------------- Iteration      1(  11)  ---------------------------------------


    POTLOK:  cpu time    0.0041: real time    0.0041
    SETDIJ:  cpu time    0.0014: real time    0.0014
    EDDIAG:  cpu time    0.0518: real time    0.0518
  RMM-DIIS:  cpu time    0.1317: real time    0.1317
    ORTHCH:  cpu time    0.0067: real time    0.0067
 BZINTS: Fermi energy:  2.671045; 76.000000 electrons
         Band energy:-656.717500;  BLOECHL correction:  0.000000
       DOS:  cpu time    0.0008: real time    0.0008
    CHARGE:  cpu time    0.0167: real time    0.0167
    MIXING:  cpu time    0.0006: real time    0.0006
    --------------------------------------------
      LOOP:  cpu time    0.2138: real time    0.2138

 eigenvalue-minimisations  :  1240
 total energy-change (2. order) :-0.3091571E-03  (-0.2929312E-03)
 number of electron      76.0000036 magnetization 
 augmentation part       -1.7422683 magnetization 

 Broyden mixing:
  rms(total) = 0.42213E-02    rms(broyden)= 0.42046E-02
  rms(prec ) = 0.49661E-02
  weight for this iteration     100.00

 eigenvalues of (default mixing * dielectric matrix)
  average eigenvalue GAMMA=   1.7069
  2.4795  2.4795  1.0350  1.2920  1.4777  1.4777

 Free energy of the ion-electron system (eV)
  ---------------------------------------------------
  alpha Z        PSCENC =        69.79103197
  Ewald energy   TEWEN  =     -2727.23370696
  -Hartree energ DENC   =      -667.08873287
  -exchange      EXHF   =         0.00000000
  -V(xc)+E(xc)   XCENC  =       185.62341394
  PAW double counting   =      7438.59467763    -7488.85332584
  entropy T*S    EENTRO =         0.00000000
  eigenvalues    EBANDS =      -656.71750028
  atomic energy  EATOM  =      3769.08782378
  Solvation  Ediel_sol  =         0.00000000
  ---------------------------------------------------
  free energy    TOTEN  =       -76.79631862 eV

  energy without entropy =      -76.79631862  energy(sigma->0) =      -76.79631862


--------------------------------------------------------------------------------------------------------




--------------------------------------- Iteration      1(  12)  ---------------------------------------


    POTLOK:  cpu time    0.0039: real time    0.0039
    SETDIJ:  cpu time    0.0014: real time    0.0014
    EDDIAG:  cpu time    0.0512: real time    0.0512
  RMM-DIIS:  cpu time    0.1302: real time    0.1302
    ORTHCH:  cpu time    0.0068: real time    0.0068
 BZINTS: Fermi energy:  2.670467; 76.000000 electrons
         Band energy:-656.771430;  BLOECHL correction:  0.000000
       DOS:  cpu time    0.0008: real time    0.0008
    CHARGE:  cpu time    0.0170: real time    0.0170
    MIXING:  cpu time    0.0006: real time    0.0006
    --------------------------------------------
      LOOP:  cpu time    0.2120: real time    0.2120

 eigenvalue-minimisations  :  1220
 total energy-change (2. order) :-0.9327493E-04  (-0.1223893E-03)
 number of electron      76.0000036 magnetization 
 augmentation part       -1.7440640 magnetization 

 Broyden mixing:
  rms(total) = 0.21704E-02    rms(broyden)= 0.21592E-02
  rms(prec ) = 0.25464E-02
  weight for this iteration     100.00

 eigenvalues of (default mixing * dielectric matrix)
  average eigenvalue GAMMA=   1.5828
  2.4236  2.4236  1.6706  1.6706  1.0302  1.2680  0.5932

 Free energy of the ion-electron system (eV)
  ---------------------------------------------------
  alpha Z        PSCENC =        69.79103197
  Ewald energy   TEWEN  =     -2727.23370696
  -Hartree energ DENC   =      -667.04197045
  -exchange      EXHF   =         0.00000000
  -V(xc)+E(xc)   XCENC  =       185.62330889
  PAW double counting   =      7448.16627688    -7498.41774606
  entropy T*S    EENTRO =         0.00000000
  eigenvalues    EBANDS =      -656.77142995
  atomic energy  EATOM  =      3769.08782378
  Solvation  Ediel_sol  =         0.00000000
  ---------------------------------------------------
  free energy    TOTEN  =       -76.79641189 eV

  energy without entropy =      -76.79641189  energy(sigma->0) =      -76.79641189


--------------------------------------------------------------------------------------------------------




--------------------------------------- Iteration      1(  13)  ---------------------------------------


    POTLOK:  cpu time    0.0038: real time    0.0042
    SETDIJ:  cpu time    0.0014: real time    0.0014
    EDDIAG:  cpu time    0.0511: real time    0.0511
  RMM-DIIS:  cpu time    0.0950: real time    0.0950
    ORTHCH:  cpu time    0.0068: real time    0.0068
 BZINTS: Fermi energy:  2.669954; 76.000000 electrons
         Band energy:-656.740864;  BLOECHL correction:  0.000000
       DOS:  cpu time    0.0008: real time    0.0008
    CHARGE:  cpu time    0.0168: real time    0.0168
    MIXING:  cpu time    0.0007: real time    0.0007
    --------------------------------------------
      LOOP:  cpu time    0.1764: real time    0.1768

 eigenvalue-minimisations  :   881
 total energy-change (2. order) :-0.5971404E-04  (-0.6966824E-04)
 number of electron      76.0000036 magnetization 
 augmentation part       -1.7446709 magnetization 

 Broyden mixing:
  rms(total) = 0.15461E-02    rms(broyden)= 0.15394E-02
  rms(prec ) = 0.16911E-02
  weight for this iteration     100.00

 eigenvalues of (default mixing * dielectric matrix)
  average eigenvalue GAMMA=   1.7591
  2.7544  2.7544  2.0560  2.0560  1.3507  1.0574  1.0219  1.0219

 Free energy of the ion-electron system (eV)
  ---------------------------------------------------
  alpha Z        PSCENC =        69.79103197
  Ewald energy   TEWEN  =     -2727.23370696
  -Hartree energ DENC   =      -667.07966327
  -exchange      EXHF   =         0.00000000
  -V(xc)+E(xc)   XCENC  =       185.62590865
  PAW double counting   =      7447.76423936    -7498.01124117
  entropy T*S    EENTRO =         0.00000000
  eigenvalues    EBANDS =      -656.74086397
  atomic energy  EATOM  =      3769.08782378
  Solvation  Ediel_sol  =         0.00000000
  ---------------------------------------------------
  free energy    TOTEN  =       -76.79647161 eV

  energy without entropy =      -76.79647161  energy(sigma->0) =      -76.79647161


--------------------------------------------------------------------------------------------------------




--------------------------------------- Iteration      1(  14)  ---------------------------------------


    POTLOK:  cpu time    0.0042: real time    0.0046
    SETDIJ:  cpu time    0.0013: real time    0.0013
    EDDIAG:  cpu time    0.0504: real time    0.0505
  RMM-DIIS:  cpu time    0.1066: real time    0.1067
    ORTHCH:  cpu time    0.0068: real time    0.0068
 BZINTS: Fermi energy:  2.669707; 76.000000 electrons
         Band energy:-656.724325;  BLOECHL correction:  0.000000
       DOS:  cpu time    0.0009: real time    0.0009
    CHARGE:  cpu time    0.0169: real time    0.0169
    MIXING:  cpu time    0.0007: real time    0.0007
    --------------------------------------------
      LOOP:  cpu time    0.1878: real time    0.1882

 eigenvalue-minimisations  :   973
 total energy-change (2. order) :-0.2920918E-04  (-0.3324759E-04)
 number of electron      76.0000036 magnetization 
 augmentation part       -1.7450518 magnetization 

 Broyden mixing:
  rms(total) = 0.31517E-03    rms(broyden)= 0.30436E-03
  rms(prec ) = 0.42500E-03
  weight for this iteration     100.00

 eigenvalues of (default mixing * dielectric matrix)
  average eigenvalue GAMMA=   1.7166
  3.0392  2.4977  2.0916  2.0916  1.6771  1.2620  0.9735  0.9083  0.9083

 Free energy of the ion-electron system (eV)
  ---------------------------------------------------
  alpha Z        PSCENC =        69.79103197
  Ewald energy   TEWEN  =     -2727.23370696
  -Hartree energ DENC   =      -667.10849656
  -exchange      EXHF   =         0.00000000
  -V(xc)+E(xc)   XCENC  =       185.62859451
  PAW double counting   =      7444.98606559    -7495.22348829
  entropy T*S    EENTRO =         0.00000000
  eigenvalues    EBANDS =      -656.72432486
  atomic energy  EATOM  =      3769.08782378
  Solvation  Ediel_sol  =         0.00000000
  ---------------------------------------------------
  free energy    TOTEN  =       -76.79650081 eV

  energy without entropy =      -76.79650081  energy(sigma->0) =      -76.79650081


--------------------------------------------------------------------------------------------------------




--------------------------------------- Iteration      1(  15)  ---------------------------------------


    POTLOK:  cpu time    0.0036: real time    0.0040
    SETDIJ:  cpu time    0.0014: real time    0.0015
    EDDIAG:  cpu time    0.0509: real time    0.0509
  RMM-DIIS:  cpu time    0.0890: real time    0.0890
    ORTHCH:  cpu time    0.0067: real time    0.0067
 BZINTS: Fermi energy:  2.669248; 76.000000 electrons
         Band energy:-656.715360;  BLOECHL correction:  0.000000
       DOS:  cpu time    0.0008: real time    0.0008
    --------------------------------------------
      LOOP:  cpu time    0.1524: real time    0.1528

 eigenvalue-minimisations  :   806
 total energy-change (2. order) :-0.1554330E-04  (-0.1957581E-04)
 number of electron      76.0000036 magnetization 
 augmentation part       -1.7450518 magnetization 

 Free energy of the ion-electron system (eV)
  ---------------------------------------------------
  alpha Z        PSCENC =        69.79103197
  Ewald energy   TEWEN  =     -2727.23370696
  -Hartree energ DENC   =      -667.11969428
  -exchange      EXHF   =         0.00000000
  -V(xc)+E(xc)   XCENC  =       185.62945761
  PAW double counting   =      7444.89410488    -7495.13017347
  entropy T*S    EENTRO =         0.00000000
  eigenvalues    EBANDS =      -656.71535990
  atomic energy  EATOM  =      3769.08782378
  Solvation  Ediel_sol  =         0.00000000
  ---------------------------------------------------
  free energy    TOTEN  =       -76.79651636 eV

  energy without entropy =      -76.79651636  energy(sigma->0) =      -76.79651636


--------------------------------------------------------------------------------------------------------




 average (electrostatic) potential at core
  the test charge radii are     0.9587  0.9698  0.7079
  (the norm of the test charge is              1.0000)
       1 -88.0582       2 -88.0582       3 -88.1107       4 -88.1107       5 -88.1107
       6 -88.1107       7 -87.9918       8 -87.9918       9 -88.0764      10 -88.0764
      11 -64.2255      12 -64.2255      13 -63.4636      14 -63.4636      15 -63.4636
      16 -63.4636
 
 
 
 E-fermi :   2.6692     XC(G=0):  -9.1812     alpha+bet :-10.6816


 k-point     1 :       0.0000    0.0000    0.0000
  band No.  band energies     occupation 
      1     -41.3749      2.00000
      2     -41.3748      2.00000
      3     -40.6416      2.00000
      4     -40.6414      2.00000
      5     -40.6408      2.00000
      6     -40.6404      2.00000
      7     -12.4621      2.00000
      8     -12.2518      2.00000
      9      -9.5067      2.00000
     10      -9.3529      2.00000
     11      -9.2756      2.00000
     12      -9.0820      2.00000
     13      -9.0606      2.00000
     14      -8.9393      2.00000
     15      -5.5476      2.00000
     16      -4.8516      2.00000
     17      -2.6078      2.00000
     18      -2.5122      2.00000
     19      -2.3766      2.00000
     20      -2.0460      2.00000
     21      -1.9425      2.00000
     22      -1.8282      2.00000
     23      -0.1000      2.00000
     24       0.1329      2.00000
     25       0.1582      2.00000
     26       0.6857      2.00000
     27       0.6917      2.00000
     28       0.8800      2.00000
     29       0.9270      2.00000
     30       1.1582      2.00000
     31       1.3912      2.00000
     32       1.4090      2.00000
     33       2.0323      2.00000
     34       2.0865      2.00000
     35       2.1672      2.00000
     36       2.2827      2.00000
     37       2.3643      2.00000
     38       2.6122      2.00000
     39       5.9349      0.00000
     40       6.0539      0.00000
     41       6.4435      0.00000
     42       6.4969      0.00000
     43       6.9283      0.00000
     44       7.3189      0.00000
     45       7.4449      0.00000
     46       7.6390      0.00000
     47       7.9938      0.00000
     48       8.6681      0.00000

 k-point     2 :       0.3333    0.0000    0.0000
  band No.  band energies     occupation 
      1     -41.3748      2.00000
      2     -41.3748      2.00000
      3     -40.6415      2.00000
      4     -40.6413      2.00000
      5     -40.6407      2.00000
      6     -40.6406      2.00000
      7     -12.4128      2.00000
      8     -12.3079      2.00000
      9      -9.4261      2.00000
     10      -9.2996      2.00000
     11      -9.2934      2.00000
     12      -9.1874      2.00000
     13      -9.0461      2.00000
     14      -8.9813      2.00000
     15      -5.3578      2.00000
     16      -5.0102      2.00000
     17      -2.5946      2.00000
     18      -2.5563      2.00000
     19      -2.2968      2.00000
     20      -2.0989      2.00000
     21      -1.9245      2.00000
     22      -1.8802      2.00000
     23      -0.1303      2.00000
     24       0.0205      2.00000
     25       0.4879      2.00000
     26       0.6860      2.00000
     27       0.7600      2.00000
     28       0.8850      2.00000
     29       1.2113      2.00000
     30       1.2239      2.00000
     31       1.3001      2.00000
     32       1.4950      2.00000
     33       1.8072      2.00000
     34       1.8694      2.00000
     35       1.9759      2.00000
     36       2.1381      2.00000
     37       2.3203      2.00000
     38       2.3825      2.00000
     39       6.2064      0.00000
     40       6.3043      0.00000
     41       6.5717      0.00000
     42       6.8304      0.00000
     43       6.9209      0.00000
     44       7.2600      0.00000
     45       7.3945      0.00000
     46       7.4173      0.00000
     47       8.3860      0.00000
     48       8.8211      0.00000

 k-point     3 :       0.0000    0.3333    0.0000
  band No.  band energies     occupation 
      1     -41.3749      2.00000
      2     -41.3748      2.00000
      3     -40.6416      2.00000
      4     -40.6414      2.00000
      5     -40.6407      2.00000
      6     -40.6405      2.00000
      7     -12.4030      2.00000
      8     -12.2624      2.00000
      9      -9.4977      2.00000
     10      -9.4422      2.00000
     11      -9.3409      2.00000
     12      -9.1101      2.00000
     13      -9.0928      2.00000
     14      -8.9455      2.00000
     15      -5.3441      2.00000
     16      -4.7948      2.00000
     17      -2.6462      2.00000
     18      -2.4091      2.00000
     19      -2.2385      2.00000
     20      -2.1016      2.00000
     21      -1.8798      2.00000
     22      -1.8101      2.00000
     23      -0.1606      2.00000
     24       0.0713      2.00000
     25       0.3202      2.00000
     26       0.4305      2.00000
     27       0.6075      2.00000
     28       0.8075      2.00000
     29       1.0888      2.00000
     30       1.2797      2.00000
     31       1.5296      2.00000
     32       1.6509      2.00000
     33       1.7617      2.00000
     34       1.8874      2.00000
     35       2.1052      2.00000
     36       2.1396      2.00000
     37       2.3894      2.00000
     38       2.5303      2.00000
     39       5.6621      0.00000
     40       6.3184      0.00000
     41       6.4154      0.00000
     42       6.5284      0.00000
     43       7.0167      0.00000
     44       7.1298      0.00000
     45       7.1947      0.00000
     46       7.5495      0.00000
     47       8.3062      0.00000
     48       8.6205      0.00000

 k-point     4 :       0.3333    0.3333    0.0000
  band No.  band energies     occupation 
      1     -41.3749      2.00000
      2     -41.3748      2.00000
      3     -40.6415      2.00000
      4     -40.6413      2.00000
      5     -40.6408      2.00000
      6     -40.6406      2.00000
      7     -12.3687      2.00000
      8     -12.2983      2.00000
      9      -9.4887      2.00000
     10      -9.4515      2.00000
     11      -9.2926      2.00000
     12      -9.1696      2.00000
     13      -9.0578      2.00000
     14      -8.9847      2.00000
     15      -5.1905      2.00000
     16      -4.9159      2.00000
     17      -2.5711      2.00000
     18      -2.4528      2.00000
     19      -2.2031      2.00000
     20      -2.1792      2.00000
     21      -1.8209      2.00000
     22      -1.8160      2.00000
     23      -0.0118      2.00000
     24       0.0203      2.00000
     25       0.1979      2.00000
     26       0.4291      2.00000
     27       0.6104      2.00000
     28       0.7536      2.00000
     29       0.9349      2.00000
     30       1.0988      2.00000
     31       1.5845      2.00000
     32       1.7410      2.00000
     33       1.7892      2.00000
     34       1.9202      2.00000
     35       2.0791      2.00000
     36       2.2051      2.00000
     37       2.3293      2.00000
     38       2.4965      2.00000
     39       5.8796      0.00000
     40       6.1377      0.00000
     41       6.6289      0.00000
     42       6.6727      0.00000
     43       7.0930      0.00000
     44       7.1554      0.00000
     45       7.3621      0.00000
     46       7.4972      0.00000
     47       8.5678      0.00000
     48       8.7623      0.00000

 k-point     5 :       0.0000    0.0000    0.3333
  band No.  band energies     occupation 
      1     -41.3748      2.00000
      2     -41.3748      2.00000
      3     -40.6416      2.00000
      4     -40.6414      2.00000
      5     -40.6406      2.00000
      6     -40.6405      2.00000
      7     -12.3684      2.00000
      8     -12.2574      2.00000
      9      -9.4833      2.00000
     10      -9.3748      2.00000
     11      -9.3743      2.00000
     12      -9.1681      2.00000
     13      -9.0912      2.00000
     14      -9.0909      2.00000
     15      -5.2824      2.00000
     16      -4.8821      2.00000
     17      -2.3483      2.00000
     18      -2.1164      2.00000
     19      -2.1026      2.00000
     20      -2.0961      2.00000
     21      -2.0096      2.00000
     22      -1.8747      2.00000
     23       0.0438      2.00000
     24       0.0765      2.00000
     25       0.1679      2.00000
     26       0.1903      2.00000
     27       0.4560      2.00000
     28       0.7761      2.00000
     29       0.9739      2.00000
     30       1.2413      2.00000
     31       1.5423      2.00000
     32       1.6553      2.00000
     33       1.7796      2.00000
     34       1.9568      2.00000
     35       1.9862      2.00000
     36       2.3701      2.00000
     37       2.4633      2.00000
     38       2.5521      2.00000
     39       5.2958      0.00000
     40       5.9136      0.00000
     41       6.4438      0.00000
     42       6.4619      0.00000
     43       7.0804      0.00000
     44       7.2752      0.00000
     45       7.4315      0.00000
     46       7.4606      0.00000
     47       8.0849      0.00000
     48       8.9661      0.00000

 k-point     6 :       0.3333    0.0000    0.3333
  band No.  band energies     occupation 
      1     -41.3748      2.00000
      2     -41.3748      2.00000
      3     -40.6414      2.00000
      4     -40.6413      2.00000
      5     -40.6408      2.00000
      6     -40.6406      2.00000
      7     -12.3400      2.00000
      8     -12.2844      2.00000
      9      -9.5301      2.00000
     10      -9.4604      2.00000
     11      -9.2666      2.00000
     12      -9.2046      2.00000
     13      -9.0722      2.00000
     14      -9.0463      2.00000
     15      -5.1888      2.00000
     16      -4.9886      2.00000
     17      -2.3388      2.00000
     18      -2.2723      2.00000
     19      -2.1173      2.00000
     20      -2.0008      2.00000
     21      -1.8969      2.00000
     22      -1.8725      2.00000
     23       0.0089      2.00000
     24       0.0745      2.00000
     25       0.3092      2.00000
     26       0.4718      2.00000
     27       0.4757      2.00000
     28       0.6808      2.00000
     29       1.0471      2.00000
     30       1.1232      2.00000
     31       1.5248      2.00000
     32       1.6295      2.00000
     33       1.6566      2.00000
     34       1.7600      2.00000
     35       1.7633      2.00000
     36       2.0530      2.00000
     37       2.5676      2.00000
     38       2.5935      2.00000
     39       5.5790      0.00000
     40       5.9000      0.00000
     41       6.6839      0.00000
     42       6.7302      0.00000
     43       7.0723      0.00000
     44       7.0822      0.00000
     45       7.5427      0.00000
     46       7.5966      0.00000
     47       8.2236      0.00000
     48       8.6486      0.00000

 k-point     7 :       0.0000    0.3333    0.3333
  band No.  band energies     occupation 
      1     -41.3748      2.00000
      2     -41.3748      2.00000
      3     -40.6415      2.00000
      4     -40.6414      2.00000
      5     -40.6406      2.00000
      6     -40.6406      2.00000
      7     -12.3229      2.00000
      8     -12.2485      2.00000
      9      -9.4914      2.00000
     10      -9.4422      2.00000
     11      -9.3681      2.00000
     12      -9.2481      2.00000
     13      -9.1652      2.00000
     14      -9.0925      2.00000
     15      -5.0856      2.00000
     16      -4.7762      2.00000
     17      -2.3077      2.00000
     18      -2.2596      2.00000
     19      -2.0617      2.00000
     20      -2.0566      2.00000
     21      -1.9000      2.00000
     22      -1.7658      2.00000
     23       0.0182      2.00000
     24       0.1534      2.00000
     25       0.2743      2.00000
     26       0.4385      2.00000
     27       0.5949      2.00000
     28       0.7381      2.00000
     29       0.8578      2.00000
     30       1.1402      2.00000
     31       1.1606      2.00000
     32       1.2075      2.00000
     33       1.6440      2.00000
     34       2.0888      2.00000
     35       2.1309      2.00000
     36       2.2816      2.00000
     37       2.4333      2.00000
     38       2.4727      2.00000
     39       5.4368      0.00000
     40       5.9633      0.00000
     41       6.4452      0.00000
     42       6.7973      0.00000
     43       6.8319      0.00000
     44       6.9073      0.00000
     45       7.1258      0.00000
     46       7.2457      0.00000
     47       8.4924      0.00000
     48       8.7624      0.00000

 k-point     8 :       0.3333    0.3333    0.3333
  band No.  band energies     occupation 
      1     -41.3749      2.00000
      2     -41.3748      2.00000
      3     -40.6414      2.00000
      4     -40.6414      2.00000
      5     -40.6407      2.00000
      6     -40.6407      2.00000
      7     -12.3034      2.00000
      8     -12.2661      2.00000
      9      -9.4933      2.00000
     10      -9.4644      2.00000
     11      -9.3520      2.00000
     12      -9.2927      2.00000
     13      -9.1292      2.00000
     14      -9.0877      2.00000
     15      -4.9902      2.00000
     16      -4.8344      2.00000
     17      -2.2914      2.00000
     18      -2.2390      2.00000
     19      -2.0776      2.00000
     20      -1.9841      2.00000
     21      -1.8657      2.00000
     22      -1.7898      2.00000
     23      -0.1088      2.00000
     24       0.0479      2.00000
     25       0.2011      2.00000
     26       0.3688      2.00000
     27       0.5649      2.00000
     28       0.6014      2.00000
     29       0.9821      2.00000
     30       1.0704      2.00000
     31       1.2868      2.00000
     32       1.3577      2.00000
     33       1.6596      2.00000
     34       1.9128      2.00000
     35       2.1669      2.00000
     36       2.2081      2.00000
     37       2.4474      2.00000
     38       2.5597      2.00000
     39       5.6034      0.00000
     40       5.8841      0.00000
     41       6.6403      0.00000
     42       6.6527      0.00000
     43       6.9413      0.00000
     44       7.0891      0.00000
     45       7.2640      0.00000
     46       7.3864      0.00000
     47       8.5932      0.00000
     48       8.8275      0.00000


--------------------------------------------------------------------------------------------------------


 soft charge-density along one line, spin component           1
         0         1         2         3         4         5         6         7         8         9
 total charge-density along one line
 
 pseudopotential strength for first ion, spin component:           1
 29.996  37.425   0.001   0.001   0.000   0.002   0.001   0.000
 37.425  46.699   0.001   0.001   0.000   0.002   0.001   0.000
  0.001   0.001   6.576   0.000  -0.000  10.183   0.001  -0.000
  0.001   0.001   0.000   6.576  -0.000   0.001  10.183  -0.000
  0.000   0.000  -0.000  -0.000   6.575  -0.000  -0.000  10.181
  0.002   0.002  10.183   0.001  -0.000  15.787   0.001  -0.000
  0.001   0.001   0.001  10.183  -0.000   0.001  15.787  -0.000
  0.000   0.000  -0.000  -0.000  10.181  -0.000  -0.000  15.784
 total augmentation occupancy for first ion, spin component:           1
 11.120  -6.418   0.122  -0.256   0.000  -0.042   0.125   0.000
 -6.418   4.179  -0.095   0.193   0.000   0.028  -0.090   0.000
  0.122  -0.095   4.351   0.057   0.000  -1.455  -0.029   0.000
 -0.256   0.193   0.057   4.529   0.000  -0.029  -1.535   0.000
  0.000   0.000   0.000   0.000   4.236   0.000   0.000  -1.392
 -0.042   0.028  -1.455  -0.029   0.000   0.526   0.014   0.000
  0.125  -0.090  -0.029  -1.535   0.000   0.014   0.561   0.000
  0.000   0.000   0.000   0.000  -1.392   0.000   0.000   0.498


------------------------ aborting loop because EDIFF is reached ----------------------------------------


    CHARGE:  cpu time    0.0173: real time    0.0173
    FORLOC:  cpu time    0.0007: real time    0.0007
    FORNL :  cpu time    0.0351: real time    0.0351
    STRESS:  cpu time    0.1036: real time    0.1043
    FORCOR:  cpu time    0.0029: real time    0.0029
    FORHAR:  cpu time    0.0024: real time    0.0024
    MIXING:  cpu time    0.0005: real time    0.0005
    OFIELD:  cpu time    0.0001: real time    0.0003

  FORCE on cell =-STRESS in cart. coord.  units (eV):
  Direction    XX          YY          ZZ          XY          YZ          ZX
  --------------------------------------------------------------------------------------
  Alpha Z    69.79103    69.79103    69.79103
  Ewald    -896.56455 -1009.61801  -821.05644    -0.00000     0.00000    -0.00000
  Hartree   232.39925   166.13031   268.58941    -0.00000    -0.00000     0.00000
  E(xc)    -277.42235  -277.33566  -277.38735     0.00000     0.00000     0.00000
  Local    -688.80507  -507.90573  -792.08770     0.00000     0.00000    -0.00000
  n-local   608.31968   607.14504   607.95364    -0.19149     0.08777    -0.00416
  augment   -44.30324   -44.00741   -43.39329     0.00000     0.00000     0.00000
  Kinetic   998.33951   996.33576   987.77266     0.21440     0.03896     0.04670
  Fock        0.00000     0.00000     0.00000     0.00000     0.00000     0.00000
  -------------------------------------------------------------------------------------
  Total       1.75427     0.53533     0.18195     0.00000     0.00000     0.00000
  in kB       9.94064     3.03347     1.03103     0.00000     0.00000     0.00000
  external pressure =        4.67 kB  Pullay stress =        0.00 kB


 VOLUME and BASIS-vectors are now :
 -----------------------------------------------------------------------------
  energy-cutoff  :      420.00
  volume of cell :      282.74
      direct lattice vectors                 reciprocal lattice vectors
     7.767303652  0.000000000  0.000000000     0.128744806  0.000000000  0.000000000
     0.000000000  6.133111859  0.000000000     0.000000000  0.163049366  0.000000000
     0.000000000  0.000000000  5.935282665     0.000000000  0.000000000  0.168483972

  length of vectors
     7.767303652  6.133111859  5.935282665     0.128744806  0.163049366  0.168483972


 FORCES acting on ions
    electron-ion (+dipol)            ewald-force                    non-local-force                 convergence-correction
 -----------------------------------------------------------------------------------------------
   -.641E-10 -.131E+02 -.176E+02   -.899E-09 0.129E+02 0.171E+02   0.000E+00 0.193E+00 0.482E+00   0.210E-10 -.409E-03 -.587E-03
   0.122E-08 0.131E+02 -.176E+02   0.282E-09 -.129E+02 0.171E+02   0.000E+00 -.193E+00 0.482E+00   -.221E-10 0.409E-03 -.587E-03
   -.695E+02 0.558E+01 0.724E+01   0.707E+02 -.685E+01 -.868E+01   -.118E+01 0.110E+01 0.174E+01   -.184E-02 -.588E-03 -.652E-03
   0.695E+02 -.558E+01 0.724E+01   -.707E+02 0.685E+01 -.868E+01   0.118E+01 -.110E+01 0.174E+01   0.184E-02 0.588E-03 -.652E-03
   -.695E+02 -.558E+01 0.724E+01   0.707E+02 0.685E+01 -.868E+01   -.118E+01 -.110E+01 0.174E+01   -.184E-02 0.588E-03 -.652E-03
   0.695E+02 0.558E+01 0.724E+01   -.707E+02 -.685E+01 -.868E+01   0.118E+01 0.110E+01 0.174E+01   0.184E-02 -.588E-03 -.652E-03
   0.445E-10 -.525E+02 0.473E+02   -.754E-09 0.542E+02 -.475E+02   0.000E+00 -.182E+01 0.584E-01   0.267E-10 0.153E-03 0.137E-02
   0.313E-08 0.525E+02 0.473E+02   0.411E-09 -.542E+02 -.475E+02   0.000E+00 0.182E+01 0.584E-01   -.269E-10 -.153E-03 0.137E-02
   0.574E-10 -.457E+02 -.482E+02   -.832E-09 0.472E+02 0.508E+02   0.000E+00 -.143E+01 -.267E+01   0.267E-10 -.124E-02 -.188E-04
   0.306E-08 0.457E+02 -.482E+02   0.391E-09 -.472E+02 0.508E+02   0.000E+00 0.143E+01 -.267E+01   -.268E-10 0.124E-02 -.188E-04
   -.344E-10 0.323E+02 0.146E+02   -.520E-09 -.313E+02 -.145E+02   0.000E+00 -.107E+01 -.172E+00   0.133E-10 0.113E-02 0.949E-03
   0.202E-08 -.323E+02 0.146E+02   0.192E-09 0.313E+02 -.145E+02   0.000E+00 0.107E+01 -.172E+00   -.129E-10 -.113E-02 0.949E-03
   -.721E+01 -.214E+02 -.631E+01   0.744E+01 0.209E+02 0.573E+01   -.351E+00 0.406E+00 0.494E+00   -.108E-03 -.452E-03 -.223E-03
   0.721E+01 0.214E+02 -.631E+01   -.744E+01 -.209E+02 0.573E+01   0.351E+00 -.406E+00 0.494E+00   0.108E-03 0.452E-03 -.223E-03
   -.721E+01 0.214E+02 -.631E+01   0.744E+01 -.209E+02 0.573E+01   -.351E+00 -.406E+00 0.494E+00   -.108E-03 0.452E-03 -.223E-03
   0.721E+01 -.214E+02 -.631E+01   -.744E+01 0.209E+02 0.573E+01   0.351E+00 0.406E+00 0.494E+00   0.108E-03 -.452E-03 -.223E-03
 -----------------------------------------------------------------------------------------------
   0.294E-07 -.177E-06 -.431E+01   0.311E-13 -.107E-13 0.222E-13   0.000E+00 0.444E-15 0.431E+01   -.210E-11 0.191E-10 -.784E-04
 
 
 POSITION                                       TOTAL-FORCE (eV/Angst)
 -----------------------------------------------------------------------------------
      0.00000      4.73455      2.47347         0.000000      0.036835     -0.041072
      3.88365      1.39856      5.44111         0.000000     -0.036835     -0.041072
      1.62203      3.74822      1.71828        -0.013963     -0.169619      0.293775
      2.26163      2.38489      4.68592         0.013963      0.169619      0.293775
      5.50568      2.38489      4.68592        -0.013963      0.169619      0.293775
      6.14528      3.74822      1.71828         0.013963     -0.169619      0.293775
      0.00000      0.46207      1.66703         0.000000     -0.061759     -0.210450
      3.88365      5.67105      4.63467         0.000000      0.061759     -0.210450
      0.00000      4.86296      4.50229         0.000000      0.046345     -0.125534
      3.88365      1.27016      1.53465         0.000000     -0.046345     -0.125534
      0.00000      2.67008      0.02840         0.000000     -0.052100     -0.043281
      3.88365      3.46303      2.99604         0.000000      0.052100     -0.043281
      2.07596      4.71503      5.60449        -0.118888     -0.075946     -0.083606
      1.80769      1.41808      2.63685         0.118888      0.075946     -0.083606
      5.95961      1.41808      2.63685        -0.118888      0.075946     -0.083606
      5.69135      4.71503      5.60449         0.118888     -0.075946     -0.083606
 -----------------------------------------------------------------------------------
    total drift:                                0.000000     -0.000000     -0.008313


--------------------------------------------------------------------------------------------------------



  FREE ENERGIE OF THE ION-ELECTRON SYSTEM (eV)
  ---------------------------------------------------
  free  energy   TOTEN  =       -76.79651636 eV

  energy  without entropy=      -76.79651636  energy(sigma->0) =      -76.79651636
 


--------------------------------------------------------------------------------------------------------


    POTLOK:  cpu time    0.0042: real time    0.0044


--------------------------------------------------------------------------------------------------------


     LOOP+:  cpu time    3.2778: real time    3.3024
    4ORBIT:  cpu time    0.0000: real time    0.0000
 BZINTS: Fermi energy:  2.669248; 76.000000 electrons
         Band energy:-656.715360;  BLOECHL correction:  0.000000

 total amount of memory used by VASP MPI-rank0    33587. kBytes
=======================================================================

   base      :      30000. kBytes
   nonlr-proj:       1235. kBytes
   fftplans  :        656. kBytes
   grid      :       1147. kBytes
   one-center:          3. kBytes
   wavefun   :        546. kBytes
 
  
  
 General timing and accounting informations for this job:
 ========================================================
  
                  Total CPU time used (sec):        4.175
                            User time (sec):        3.735
                          System time (sec):        0.441
                         Elapsed time (sec):        5.532
  
                   Maximum memory used (kb):      140364.
                   Average memory used (kb):           0.
  
                          Minor page faults:        20565
                          Major page faults:           86
                 Voluntary context switches:         1928
