<?xml version="1.0" encoding="ISO-8859-1"?>
<modeling>
 <generator>
  <i name="program" type="string">vasp </i>
  <i name="version" type="string">5.4.4.18Apr17-6-g9f103f2a35  </i>
  <i name="subversion" type="string">(build Feb 28 2020 14:15:47) complex            parallel </i>
  <i name="platform" type="string">LinuxIFC </i>
  <i name="date" type="string">2022 08 07 </i>
  <i name="time" type="string">09:10:10 </i>
 </generator>
 <incar>
  <i type="int" name="ISTART">     0</i>
  <i type="string" name="PREC">accurate</i>
  <i type="string" name="ALGO"> FAST</i>
  <i type="int" name="ISPIN">     1</i>
  <i type="int" name="ICHARG">     2</i>
  <i type="int" name="INIWAV">     1</i>
  <i type="int" name="NELM">   100</i>
  <i type="int" name="IBRION">     2</i>
  <i name="EDIFF">      0.00002000</i>
  <i name="EDIFFG">      0.00020000</i>
  <i type="int" name="NSW">     0</i>
  <i type="int" name="ISIF">     7</i>
  <i name="ENCUT">    420.00000000</i>
  <i type="string" name="LREAL"> AUTO</i>
  <i type="int" name="ISMEAR">    -5</i>
  <i type="logical" name="LWAVE"> F  </i>
  <i type="logical" name="LCHARG"> F  </i>
  <v type="int" name="KPOINT_BSE">    -1     0     0     0</v>
  <i type="int" name="NELM">   100</i>
 </incar>
 <structure name="primitive_cell" >
  <crystal>
   <varray name="basis" >
    <v>       7.76730365       0.00000000       0.00000000 </v>
    <v>       0.00000000       6.13311186       0.00000000 </v>
    <v>       0.00000000       0.00000000       5.93528266 </v>
   </varray>
   <i name="volume">    282.74346510 </i>
   <varray name="rec_basis" >
    <v>       0.12874481       0.00000000       0.00000000 </v>
    <v>       0.00000000       0.16304937       0.00000000 </v>
    <v>       0.00000000       0.00000000       0.16848397 </v>
   </varray>
  </crystal>
  <varray name="positions" >
   <v>       0.00000000      -0.22803417       0.41673988 </v>
   <v>       0.00000000       0.06804207       0.26464670 </v>
   <v>       0.00000000      -0.18981432      -0.24303731 </v>
   <v>       0.20882731      -0.39507890       0.29837426 </v>
   <v>      -0.20882731      -0.39507890       0.29837426 </v>
   <v>       0.00000000       0.43535495       0.00478500 </v>
   <v>       0.23273120       0.23121690       0.44426718 </v>
   <v>      -0.23273120       0.23121690       0.44426718 </v>
   <v>       0.26726880      -0.23121690      -0.05573282 </v>
   <v>      -0.26726880      -0.23121690      -0.05573282 </v>
   <v>       0.29117269       0.39507890      -0.20162574 </v>
   <v>      -0.29117269       0.39507890      -0.20162574 </v>
   <v>       0.50000000      -0.43535495      -0.49521500 </v>
   <v>       0.50000000      -0.06804207      -0.23535330 </v>
   <v>       0.50000000       0.18981432       0.25696269 </v>
   <v>       0.50000000       0.22803417      -0.08326012 </v>
  </varray>
 </structure>
 <varray name="primitive_index" >
  <v type="int" >        1 </v>
  <v type="int" >        7 </v>
  <v type="int" >        9 </v>
  <v type="int" >        3 </v>
  <v type="int" >        6 </v>
  <v type="int" >       11 </v>
  <v type="int" >       14 </v>
  <v type="int" >       15 </v>
  <v type="int" >       13 </v>
  <v type="int" >       16 </v>
  <v type="int" >        4 </v>
  <v type="int" >        5 </v>
  <v type="int" >       12 </v>
  <v type="int" >        8 </v>
  <v type="int" >       10 </v>
  <v type="int" >        2 </v>
 </varray>
 <kpoints>
  <generation param="Monkhorst-Pack">
   <v type="int" name="divisions">       3        3        3 </v>
   <v name="usershift">      0.00000000       0.00000000       0.00000000 </v>
   <v name="genvec1">      0.33333333       0.00000000       0.00000000 </v>
   <v name="genvec2">      0.00000000       0.33333333       0.00000000 </v>
   <v name="genvec3">      0.00000000       0.00000000       0.33333333 </v>
   <v name="shift">      0.00000000       0.00000000       0.00000000 </v>
  </generation>
  <varray name="kpointlist" >
   <v>       0.00000000       0.00000000       0.00000000 </v>
   <v>       0.33333333       0.00000000       0.00000000 </v>
   <v>       0.00000000       0.33333333       0.00000000 </v>
   <v>       0.33333333       0.33333333       0.00000000 </v>
   <v>       0.00000000       0.00000000       0.33333333 </v>
   <v>       0.33333333       0.00000000       0.33333333 </v>
   <v>       0.00000000       0.33333333       0.33333333 </v>
   <v>       0.33333333       0.33333333       0.33333333 </v>
  </varray>
  <varray name="weights" >
   <v>       0.03703704 </v>
   <v>       0.07407407 </v>
   <v>       0.07407407 </v>
   <v>       0.14814815 </v>
   <v>       0.07407407 </v>
   <v>       0.14814815 </v>
   <v>       0.14814815 </v>
   <v>       0.29629630 </v>
  </varray>
  <varray name="tetrahedronlist"  type="int" >
   <v type="int" >        2        1        2        4        5 </v>
   <v type="int" >        2        1        3        4        5 </v>
   <v type="int" >        2        3        4        5        7 </v>
   <v type="int" >        2        2        4        5        6 </v>
   <v type="int" >        2        4        5        6        8 </v>
   <v type="int" >        2        4        5        7        8 </v>
   <v type="int" >        2        2        2        4        6 </v>
   <v type="int" >        2        2        4        4        6 </v>
   <v type="int" >        2        4        4        6        8 </v>
   <v type="int" >        2        2        4        6        6 </v>
   <v type="int" >        2        4        6        6        8 </v>
   <v type="int" >        2        4        6        8        8 </v>
   <v type="int" >        2        1        2        3        6 </v>
   <v type="int" >        2        2        3        4        6 </v>
   <v type="int" >        2        3        4        6        8 </v>
   <v type="int" >        2        1        3        5        6 </v>
   <v type="int" >        2        3        5        6        7 </v>
   <v type="int" >        2        3        6        7        8 </v>
   <v type="int" >        2        3        4        4        7 </v>
   <v type="int" >        2        3        3        4        7 </v>
   <v type="int" >        2        3        4        7        7 </v>
   <v type="int" >        2        4        4        7        8 </v>
   <v type="int" >        2        4        7        8        8 </v>
   <v type="int" >        2        4        7        7        8 </v>
   <v type="int" >        4        4        4        4        8 </v>
   <v type="int" >        4        4        4        8        8 </v>
   <v type="int" >        4        4        8        8        8 </v>
   <v type="int" >        2        3        3        4        8 </v>
   <v type="int" >        2        3        4        4        8 </v>
   <v type="int" >        2        3        4        8        8 </v>
   <v type="int" >        2        3        3        7        8 </v>
   <v type="int" >        2        3        7        7        8 </v>
   <v type="int" >        2        3        7        8        8 </v>
   <v type="int" >        2        2        3        4        7 </v>
   <v type="int" >        2        1        2        3        7 </v>
   <v type="int" >        2        1        2        5        7 </v>
   <v type="int" >        2        2        4        7        8 </v>
   <v type="int" >        2        2        6        7        8 </v>
   <v type="int" >        2        2        5        6        7 </v>
   <v type="int" >        2        2        4        4        8 </v>
   <v type="int" >        2        2        2        4        8 </v>
   <v type="int" >        2        2        2        6        8 </v>
   <v type="int" >        2        2        4        8        8 </v>
   <v type="int" >        2        2        6        8        8 </v>
   <v type="int" >        2        2        6        6        8 </v>
   <v type="int" >        2        1        3        4        8 </v>
   <v type="int" >        2        1        2        4        8 </v>
   <v type="int" >        2        1        2        6        8 </v>
   <v type="int" >        2        1        3        7        8 </v>
   <v type="int" >        2        1        5        7        8 </v>
   <v type="int" >        2        1        5        6        8 </v>
   <v type="int" >        2        5        5        6        8 </v>
   <v type="int" >        2        5        5        7        8 </v>
   <v type="int" >        2        5        7        7        8 </v>
   <v type="int" >        2        5        6        6        8 </v>
   <v type="int" >        2        5        6        8        8 </v>
   <v type="int" >        2        5        7        8        8 </v>
   <v type="int" >        4        6        6        6        8 </v>
   <v type="int" >        4        6        6        8        8 </v>
   <v type="int" >        4        6        8        8        8 </v>
   <v type="int" >        2        5        6        6        7 </v>
   <v type="int" >        2        6        6        7        8 </v>
   <v type="int" >        2        6        7        8        8 </v>
   <v type="int" >        2        5        5        6        7 </v>
   <v type="int" >        2        5        6        7        7 </v>
   <v type="int" >        2        6        7        7        8 </v>
   <v type="int" >        4        7        7        8        8 </v>
   <v type="int" >        4        7        7        7        8 </v>
   <v type="int" >        4        7        8        8        8 </v>
   <v type="int" >        6        8        8        8        8 </v>
  </varray>
  <i name="volumeweight">      0.00617284 </i>
 </kpoints>
 <parameters>
  <separator name="general" >
   <i type="string" name="SYSTEM">unknown system</i>
   <i type="logical" name="LCOMPAT"> F  </i>
  </separator>
  <separator name="electronic" >
   <i type="string" name="PREC">accura</i>
   <i name="ENMAX">    420.00000000</i>
   <i name="ENAUG">    628.94500000</i>
   <i name="EDIFF">      0.00002000</i>
   <i type="int" name="IALGO">    68</i>
   <i type="int" name="IWAVPR">    10</i>
   <i type="int" name="NBANDS">    48</i>
   <i name="NELECT">     76.00000000</i>
   <i type="int" name="TURBO">     0</i>
   <i type="int" name="IRESTART">     0</i>
   <i type="int" name="NREBOOT">     0</i>
   <i type="int" name="NMIN">     0</i>
   <i name="EREF">      0.00000000</i>
   <separator name="electronic smearing" >
    <i type="int" name="ISMEAR">    -5</i>
    <i name="SIGMA">      0.20000000</i>
    <i name="KSPACING">      0.50000000</i>
    <i type="logical" name="KGAMMA"> T  </i>
   </separator>
   <separator name="electronic projectors" >
    <i type="logical" name="LREAL"> T  </i>
    <v name="ROPT">     -0.00025000     -0.00025000     -0.00025000</v>
    <i type="int" name="LMAXPAW">  -100</i>
    <i type="int" name="LMAXMIX">     2</i>
    <i type="logical" name="NLSPLINE"> F  </i>
   </separator>
   <separator name="electronic startup" >
    <i type="int" name="ISTART">     0</i>
    <i type="int" name="ICHARG">     2</i>
    <i type="int" name="INIWAV">     1</i>
   </separator>
   <separator name="electronic spin" >
    <i type="int" name="ISPIN">     1</i>
    <i type="logical" name="LNONCOLLINEAR"> F  </i>
    <v name="MAGMOM">      1.00000000      1.00000000      1.00000000      1.00000000      1.00000000      1.00000000      1.00000000      1.00000000      1.00000000      1.00000000      1.00000000      1.00000000      1.00000000      1.00000000      1.00000000      1.00000000</v>
    <i name="NUPDOWN">     -1.00000000</i>
    <i type="logical" name="LSORBIT"> F  </i>
    <v name="SAXIS">      0.00000000      0.00000000      1.00000000</v>
    <i type="logical" name="LSPIRAL"> F  </i>
    <v name="QSPIRAL">      0.00000000      0.00000000      0.00000000</v>
    <i type="logical" name="LZEROZ"> F  </i>
   </separator>
   <separator name="electronic exchange-correlation" >
    <i type="logical" name="LASPH"> F  </i>
    <i type="logical" name="LMETAGGA"> F  </i>
   </separator>
   <separator name="electronic convergence" >
    <i type="int" name="NELM">   100</i>
    <i type="int" name="NELMDL">    -5</i>
    <i type="int" name="NELMIN">     2</i>
    <i name="ENINI">    420.00000000</i>
    <separator name="electronic convergence detail" >
     <i type="logical" name="LDIAG"> T  </i>
     <i type="logical" name="LSUBROT"> F  </i>
     <i name="WEIMIN">      0.00000000</i>
     <i name="EBREAK">      0.00000010</i>
     <i name="DEPER">      0.30000000</i>
     <i type="int" name="NRMM">     4</i>
     <i name="TIME">      0.40000000</i>
    </separator>
   </separator>
   <separator name="electronic mixer" >
    <i name="AMIX">      0.40000000</i>
    <i name="BMIX">      1.00000000</i>
    <i name="AMIN">      0.10000000</i>
    <i name="AMIX_MAG">      1.60000000</i>
    <i name="BMIX_MAG">      1.00000000</i>
    <separator name="electronic mixer details" >
     <i type="int" name="IMIX">     4</i>
     <i type="logical" name="MIXFIRST"> F  </i>
     <i type="int" name="MAXMIX">   -45</i>
     <i name="WC">    100.00000000</i>
     <i type="int" name="INIMIX">     1</i>
     <i type="int" name="MIXPRE">     1</i>
     <i type="int" name="MREMOVE">     5</i>
    </separator>
   </separator>
   <separator name="electronic dipolcorrection" >
    <i type="logical" name="LDIPOL"> F  </i>
    <i type="logical" name="LMONO"> F  </i>
    <i type="int" name="IDIPOL">     0</i>
    <i name="EPSILON">      1.00000000</i>
    <v name="DIPOL">   -100.00000000   -100.00000000   -100.00000000</v>
    <i name="EFIELD">      0.00000000</i>
   </separator>
  </separator>
  <separator name="grids" >
   <i type="int" name="NGX">    54</i>
   <i type="int" name="NGY">    42</i>
   <i type="int" name="NGZ">    40</i>
   <i type="int" name="NGXF">   108</i>
   <i type="int" name="NGYF">    84</i>
   <i type="int" name="NGZF">    80</i>
   <i type="logical" name="ADDGRID"> F  </i>
  </separator>
  <separator name="ionic" >
   <i type="int" name="NSW">     0</i>
   <i type="int" name="IBRION">    -1</i>
   <i type="int" name="MDALGO">     0</i>
   <i type="int" name="ISIF">     7</i>
   <i name="PSTRESS">      0.00000000</i>
   <i name="EDIFFG">      0.00020000</i>
   <i type="int" name="NFREE">     1</i>
   <i name="POTIM">      0.50000000</i>
   <i name="SMASS">     -3.00000000</i>
   <i name="SCALEE">      1.00000000</i>
  </separator>
  <separator name="ionic md" >
   <i name="TEBEG">      0.00010000</i>
   <i name="TEEND">      0.00010000</i>
   <i type="int" name="NBLOCK">     1</i>
   <i type="int" name="KBLOCK">     1</i>
   <i type="int" name="NPACO">   256</i>
   <i name="APACO">     16.00000000</i>
  </separator>
  <separator name="symmetry" >
   <i type="int" name="ISYM">     2</i>
   <i name="SYMPREC">      0.00001000</i>
  </separator>
  <separator name="dos" >
   <i type="int" name="LORBIT">     0</i>
   <v name="RWIGS">     -1.00000000     -1.00000000     -1.00000000</v>
   <i type="int" name="NEDOS">   301</i>
   <i name="EMIN">     10.00000000</i>
   <i name="EMAX">    -10.00000000</i>
   <i name="EFERMI">      0.00000000</i>
  </separator>
  <separator name="writing" >
   <i type="int" name="NWRITE">     2</i>
   <i type="logical" name="LWAVE"> F  </i>
   <i type="logical" name="LDOWNSAMPLE"> F  </i>
   <i type="logical" name="LCHARG"> F  </i>
   <i type="logical" name="LPARD"> F  </i>
   <i type="logical" name="LVTOT"> F  </i>
   <i type="logical" name="LVHAR"> F  </i>
   <i type="logical" name="LELF"> F  </i>
   <i type="logical" name="LOPTICS"> F  </i>
   <v name="STM">      0.00000000      0.00000000      0.00000000      0.00000000      0.00000000      0.00000000      0.00000000</v>
  </separator>
  <separator name="performance" >
   <i type="int" name="NPAR">     4</i>
   <i type="int" name="NSIM">     4</i>
   <i type="int" name="NBLK">    -1</i>
   <i type="logical" name="LPLANE"> T  </i>
   <i type="logical" name="LSCALAPACK"> T  </i>
   <i type="logical" name="LSCAAWARE"> F  </i>
   <i type="logical" name="LSCALU"> F  </i>
   <i type="logical" name="LASYNC"> F  </i>
   <i type="logical" name="LORBITALREAL"> F  </i>
  </separator>
  <separator name="miscellaneous" >
   <i type="int" name="IDIOT">     3</i>
   <i type="int" name="ISPECIAL">     0</i>
   <i type="logical" name="LMUSIC"> F  </i>
   <v name="POMASS">     30.97400000     32.06600000      7.01000000</v>
   <v name="DARWINR">      0.00000000      0.00000000      0.00000000</v>
   <v name="DARWINV">      1.00000000      1.00000000      1.00000000</v>
   <i type="logical" name="LCORR"> T  </i>
  </separator>
  <i type="logical" name="GGA_COMPAT"> T  </i>
  <i type="logical" name="LBERRY"> F  </i>
  <i type="int" name="ICORELEVEL">     0</i>
  <i type="logical" name="LDAU"> F  </i>
  <i type="int" name="I_CONSTRAINED_M">     0</i>
  <separator name="electronic exchange-correlation" >
   <i type="string" name="GGA">--</i>
   <i type="int" name="VOSKOWN">     0</i>
   <i type="logical" name="LHFCALC"> F  </i>
   <i type="string" name="PRECFOCK"></i>
   <i type="logical" name="LSYMGRAD"> F  </i>
   <i type="logical" name="LHFONE"> F  </i>
   <i type="logical" name="LRHFCALC"> F  </i>
   <i type="logical" name="LTHOMAS"> F  </i>
   <i type="logical" name="LMODELHF"> F  </i>
   <i name="ENCUT4O">     -1.00000000</i>
   <i type="int" name="EXXOEP">     0</i>
   <i type="int" name="FOURORBIT">     0</i>
   <i name="AEXX">      0.00000000</i>
   <i name="HFALPHA">      0.00000000</i>
   <i name="MCALPHA">      0.00000000</i>
   <i name="ALDAX">      1.00000000</i>
   <i name="AGGAX">      1.00000000</i>
   <i name="ALDAC">      1.00000000</i>
   <i name="AGGAC">      1.00000000</i>
   <i type="int" name="NKREDX">     1</i>
   <i type="int" name="NKREDY">     1</i>
   <i type="int" name="NKREDZ">     1</i>
   <i type="logical" name="SHIFTRED"> F  </i>
   <i type="logical" name="ODDONLY"> F  </i>
   <i type="logical" name="EVENONLY"> F  </i>
   <i type="int" name="LMAXFOCK">     0</i>
   <i type="int" name="NMAXFOCKAE">     0</i>
   <i type="logical" name="LFOCKAEDFT"> F  </i>
   <i name="HFSCREEN">      0.00000000</i>
   <i name="HFSCREENC">      0.00000000</i>
   <i type="int" name="NBANDSGWLOW">     0</i>
  </separator>
  <separator name="vdW DFT" >
   <i type="logical" name="LUSE_VDW"> F  </i>
   <i name="Zab_VDW">     -0.84910000</i>
   <i name="PARAM1">      0.12340000</i>
   <i name="PARAM2">      1.00000000</i>
   <i name="PARAM3">      0.00000000</i>
  </separator>
  <separator name="model GW" >
   <i type="int" name="MODEL_GW">     0</i>
   <i name="MODEL_EPS0">     10.60287994</i>
   <i name="MODEL_ALPHA">      1.00000000</i>
  </separator>
  <separator name="linear response parameters" >
   <i type="logical" name="LEPSILON"> F  </i>
   <i type="logical" name="LRPA"> F  </i>
   <i type="logical" name="LNABLA"> F  </i>
   <i type="logical" name="LVEL"> F  </i>
   <i type="int" name="KINTER">     0</i>
   <i name="CSHIFT">      0.10000000</i>
   <i name="OMEGAMAX">     -1.00000000</i>
   <i name="DEG_THRESHOLD">      0.00200000</i>
   <i name="RTIME">     -0.10000000</i>
   <i name="WPLASMAI">      0.00000000</i>
   <v name="DFIELD">      0.00000000      0.00000000      0.00000000</v>
   <v name="WPLASMA">      0.00000000      0.00000000      0.00000000      0.00000000      0.00000000      0.00000000      0.00000000      0.00000000      0.00000000</v>
  </separator>
  <separator name="orbital magnetization" >
   <i type="logical" name="NUCIND"> F  </i>
   <v name="MAGPOS">      0.00000000      0.00000000      0.00000000</v>
   <i type="logical" name="LNICSALL"> T  </i>
   <i type="logical" name="ORBITALMAG"> F  </i>
   <i type="logical" name="LMAGBLOCH"> F  </i>
   <i type="logical" name="LCHIMAG"> F  </i>
   <i type="logical" name="LGAUGE"> T  </i>
   <i type="int" name="MAGATOM">     0</i>
   <v name="MAGDIPOL">      0.00000000      0.00000000      0.00000000</v>
   <v name="AVECCONST">      0.00000000      0.00000000      0.00000000</v>
  </separator>
  <separator name="response functions" >
   <i type="logical" name="LADDER"> F  </i>
   <i type="logical" name="LRPAFORCE"> F  </i>
   <i type="logical" name="LFXC"> F  </i>
   <i type="logical" name="LHARTREE"> T  </i>
   <i type="int" name="IBSE">     0</i>
   <v type="int" name="KPOINT">    -1     0     0     0</v>
   <i type="logical" name="LTCTE"> F  </i>
   <i type="logical" name="LTETE"> F  </i>
   <i type="logical" name="LTRIPLET"> F  </i>
   <i type="logical" name="LFXCEPS"> F  </i>
   <i type="logical" name="LFXHEG"> F  </i>
   <i type="int" name="NATURALO">     2</i>
   <i type="logical" name="L2ORDER"> F  </i>
   <i type="logical" name="LMP2LT"> F  </i>
   <i type="logical" name="LUSEW"> F  </i>
   <i name="ENCUTGW">     -2.00000000</i>
   <i name="ENCUTGWSOFT">     -2.00000000</i>
   <i name="ENCUTLF">     -1.00000000</i>
   <i type="int" name="LMAXMP2">    -1</i>
   <i name="SCISSOR">      0.00000000</i>
   <i type="int" name="NOMEGA">     0</i>
   <i type="int" name="NOMEGAR">     0</i>
   <i type="int" name="NBANDSGW">    -1</i>
   <i type="int" name="NBANDSO">    -1</i>
   <i type="int" name="NBANDSV">    -1</i>
   <i type="int" name="NELM">   100</i>
   <i type="int" name="NELMHF">     1</i>
   <i type="int" name="DIM">     3</i>
   <i type="int" name="ANTIRES">     0</i>
   <i name="OMEGAMAX">    -30.00000000</i>
   <i name="OMEGAMIN">    -30.00000000</i>
   <i name="OMEGATL">   -200.00000000</i>
   <i type="int" name="OMEGAGRID">   140</i>
   <i name="CSHIFT">     -0.10000000</i>
   <i type="logical" name="SELFENERGY"> F  </i>
   <i type="logical" name="LSPECTRAL"> F  </i>
   <i type="logical" name="LSPECTRALGW"> F  </i>
   <i type="logical" name="LSINGLES"> F  </i>
   <i type="logical" name="LFERMIGW"> F  </i>
   <i type="logical" name="ODDONLYGW"> F  </i>
   <i type="logical" name="EVENONLYGW"> F  </i>
   <i type="int" name="NKREDLFX">     1</i>
   <i type="int" name="NKREDLFY">     1</i>
   <i type="int" name="NKREDLFZ">     1</i>
   <i type="int" name="MAXMEM">  2800</i>
   <i type="int" name="TELESCOPE">     0</i>
   <i type="int" name="TAUPAR">     1</i>
   <i type="int" name="OMEGAPAR">    -1</i>
   <i name="LAMBDA">      1.00000000</i>
  </separator>
  <separator name="External order field" >
   <i name="OFIELD_KAPPA">      0.00000000</i>
   <v name="OFIELD_K">      0.00000000      0.00000000      0.00000000</v>
   <i name="OFIELD_Q6_NEAR">      0.00000000</i>
   <i name="OFIELD_Q6_FAR">      0.00000000</i>
   <i name="OFIELD_A">      0.00000000</i>
  </separator>
 </parameters>
 <atominfo>
  <atoms>      16 </atoms>
  <types>       3 </types>
  <array name="atoms" >
   <dimension dim="1">ion</dimension>
   <field type="string">element</field>
   <field type="int">atomtype</field>
   <set>
    <rc><c>P </c><c>   1</c></rc>
    <rc><c>P </c><c>   1</c></rc>
    <rc><c>S </c><c>   2</c></rc>
    <rc><c>S </c><c>   2</c></rc>
    <rc><c>S </c><c>   2</c></rc>
    <rc><c>S </c><c>   2</c></rc>
    <rc><c>S </c><c>   2</c></rc>
    <rc><c>S </c><c>   2</c></rc>
    <rc><c>S </c><c>   2</c></rc>
    <rc><c>S </c><c>   2</c></rc>
    <rc><c>Li</c><c>   3</c></rc>
    <rc><c>Li</c><c>   3</c></rc>
    <rc><c>Li</c><c>   3</c></rc>
    <rc><c>Li</c><c>   3</c></rc>
    <rc><c>Li</c><c>   3</c></rc>
    <rc><c>Li</c><c>   3</c></rc>
   </set>
  </array>
  <array name="atomtypes" >
   <dimension dim="1">type</dimension>
   <field type="int">atomspertype</field>
   <field type="string">element</field>
   <field>mass</field>
   <field>valence</field>
   <field type="string">pseudopotential</field>
   <set>
    <rc><c>   2</c><c>P </c><c>     30.97400000</c><c>      5.00000000</c><c>  PAW P 26Mar2009                       </c></rc>
    <rc><c>   8</c><c>S </c><c>     32.06600000</c><c>      6.00000000</c><c>  PAW S 27Mar2009                       </c></rc>
    <rc><c>   6</c><c>Li</c><c>      7.01000000</c><c>      3.00000000</c><c>  PAW Li_sv 10Sep2004                   </c></rc>
   </set>
  </array>
 </atominfo>
 <structure name="initialpos" >
  <crystal>
   <varray name="basis" >
    <v>       7.76730365       0.00000000       0.00000000 </v>
    <v>       0.00000000       6.13311186       0.00000000 </v>
    <v>       0.00000000       0.00000000       5.93528266 </v>
   </varray>
   <i name="volume">    282.74346510 </i>
   <varray name="rec_basis" >
    <v>       0.12874481       0.00000000       0.00000000 </v>
    <v>       0.00000000       0.16304937       0.00000000 </v>
    <v>       0.00000000       0.00000000       0.16848397 </v>
   </varray>
  </crystal>
  <varray name="positions" >
   <v>       0.00000000       0.77196583       0.41673988 </v>
   <v>       0.50000000       0.22803417       0.91673988 </v>
   <v>       0.20882731       0.60492110       0.29837426 </v>
   <v>       0.29117269       0.39507890       0.79837426 </v>
   <v>       0.70882731       0.39507890       0.79837426 </v>
   <v>       0.79117269       0.60492110       0.29837426 </v>
   <v>       0.00000000       0.06804207       0.26464670 </v>
   <v>       0.50000000       0.93195793       0.76464670 </v>
   <v>       0.00000000       0.81018568       0.75696269 </v>
   <v>       0.50000000       0.18981432       0.25696269 </v>
   <v>       0.00000000       0.43535495       0.00478500 </v>
   <v>       0.50000000       0.56464505       0.50478500 </v>
   <v>       0.26726880       0.76878310       0.94426718 </v>
   <v>       0.23273120       0.23121690       0.44426718 </v>
   <v>       0.76726880       0.23121690       0.44426718 </v>
   <v>       0.73273120       0.76878310       0.94426718 </v>
  </varray>
 </structure>
 <calculation>
  <scstep>
   <time name="dav">    0.20    0.21</time>
   <time name="total">    0.22    0.23</time>
   <energy>
    <i name="alphaZ">     69.79103197 </i>
    <i name="ewald">  -2739.83957866 </i>
    <i name="hartreedc">   -627.05748844 </i>
    <i name="XCdc">    182.17948383 </i>
    <i name="pawpsdc">   2494.22442938 </i>
    <i name="pawaedc">  -2541.12215007 </i>
    <i name="eentropy">      0.00000000 </i>
    <i name="bandstr">   -110.40633486 </i>
    <i name="atom">   3769.08782378 </i>
    <i name="e_fr_energy">    496.85721694 </i>
    <i name="e_wo_entrp">    496.85721694 </i>
    <i name="e_0_energy">    496.85721694 </i>
   </energy>
  </scstep>
  <scstep>
   <time name="dav">    0.19    0.20</time>
   <time name="total">    0.20    0.20</time>
   <energy>
    <i name="e_fr_energy">    -10.43025724 </i>
    <i name="e_wo_entrp">    -10.43025724 </i>
    <i name="e_0_energy">    -10.43025724 </i>
   </energy>
  </scstep>
  <scstep>
   <time name="dav">    0.22    0.22</time>
   <time name="total">    0.22    0.22</time>
   <energy>
    <i name="e_fr_energy">    -72.00601809 </i>
    <i name="e_wo_entrp">    -72.00601809 </i>
    <i name="e_0_energy">    -72.00601809 </i>
   </energy>
  </scstep>
  <scstep>
   <time name="dav">    0.28    0.28</time>
   <time name="total">    0.28    0.28</time>
   <energy>
    <i name="e_fr_energy">    -78.70256449 </i>
    <i name="e_wo_entrp">    -78.70256449 </i>
    <i name="e_0_energy">    -78.70256449 </i>
   </energy>
  </scstep>
  <scstep>
   <time name="dav">    0.23    0.23</time>
   <time name="total">    0.25    0.25</time>
   <energy>
    <i name="e_fr_energy">    -79.51949662 </i>
    <i name="e_wo_entrp">    -79.51949662 </i>
    <i name="e_0_energy">    -79.51949662 </i>
   </energy>
  </scstep>
  <scstep>
   <time name="diag">    0.05    0.05</time>
   <time name="diis">    0.10    0.10</time>
   <time name="orth">    0.01    0.01</time>
   <time name="total">    0.18    0.18</time>
   <energy>
    <i name="e_fr_energy">    -77.36964669 </i>
    <i name="e_wo_entrp">    -77.36964669 </i>
    <i name="e_0_energy">    -77.36964669 </i>
   </energy>
  </scstep>
  <scstep>
   <time name="diag">    0.05    0.05</time>
   <time name="diis">    0.10    0.10</time>
   <time name="orth">    0.01    0.01</time>
   <time name="total">    0.18    0.18</time>
   <energy>
    <i name="e_fr_energy">    -76.94723184 </i>
    <i name="e_wo_entrp">    -76.94723184 </i>
    <i name="e_0_energy">    -76.94723184 </i>
   </energy>
  </scstep>
  <scstep>
   <time name="diag">    0.05    0.05</time>
   <time name="diis">    0.12    0.12</time>
   <time name="orth">    0.01    0.01</time>
   <time name="total">    0.20    0.20</time>
   <energy>
    <i name="e_fr_energy">    -76.87302845 </i>
    <i name="e_wo_entrp">    -76.87302845 </i>
    <i name="e_0_energy">    -76.87302845 </i>
   </energy>
  </scstep>
  <scstep>
   <time name="diag">    0.05    0.05</time>
   <time name="diis">    0.12    0.12</time>
   <time name="orth">    0.01    0.01</time>
   <time name="total">    0.20    0.20</time>
   <energy>
    <i name="e_fr_energy">    -76.86611128 </i>
    <i name="e_wo_entrp">    -76.86611128 </i>
    <i name="e_0_energy">    -76.86611128 </i>
   </energy>
  </scstep>
  <scstep>
   <time name="diag">    0.05    0.05</time>
   <time name="diis">    0.15    0.15</time>
   <time name="orth">    0.01    0.01</time>
   <time name="total">    0.23    0.23</time>
   <energy>
    <i name="e_fr_energy">    -76.86643061 </i>
    <i name="e_wo_entrp">    -76.86643061 </i>
    <i name="e_0_energy">    -76.86643061 </i>
   </energy>
  </scstep>
  <scstep>
   <time name="diag">    0.05    0.05</time>
   <time name="diis">    0.13    0.13</time>
   <time name="orth">    0.01    0.01</time>
   <time name="total">    0.22    0.22</time>
   <energy>
    <i name="e_fr_energy">    -76.86681540 </i>
    <i name="e_wo_entrp">    -76.86681540 </i>
    <i name="e_0_energy">    -76.86681540 </i>
   </energy>
  </scstep>
  <scstep>
   <time name="diag">    0.05    0.05</time>
   <time name="diis">    0.13    0.13</time>
   <time name="orth">    0.01    0.01</time>
   <time name="total">    0.21    0.21</time>
   <energy>
    <i name="e_fr_energy">    -76.86695027 </i>
    <i name="e_wo_entrp">    -76.86695027 </i>
    <i name="e_0_energy">    -76.86695027 </i>
   </energy>
  </scstep>
  <scstep>
   <time name="diag">    0.05    0.05</time>
   <time name="diis">    0.10    0.10</time>
   <time name="orth">    0.01    0.01</time>
   <time name="total">    0.18    0.18</time>
   <energy>
    <i name="e_fr_energy">    -76.86703478 </i>
    <i name="e_wo_entrp">    -76.86703478 </i>
    <i name="e_0_energy">    -76.86703478 </i>
   </energy>
  </scstep>
  <scstep>
   <time name="diag">    0.05    0.05</time>
   <time name="diis">    0.11    0.11</time>
   <time name="orth">    0.01    0.01</time>
   <time name="total">    0.19    0.19</time>
   <energy>
    <i name="e_fr_energy">    -76.86707435 </i>
    <i name="e_wo_entrp">    -76.86707435 </i>
    <i name="e_0_energy">    -76.86707435 </i>
   </energy>
  </scstep>
  <scstep>
   <time name="diag">    0.05    0.05</time>
   <time name="diis">    0.09    0.09</time>
   <time name="orth">    0.01    0.01</time>
   <time name="total">    0.17    0.17</time>
   <energy>
    <i name="e_fr_energy">    -76.86709724 </i>
    <i name="e_wo_entrp">    -76.86709724 </i>
    <i name="e_0_energy">    -76.86709724 </i>
   </energy>
  </scstep>
  <scstep>
   <time name="diag">    0.05    0.05</time>
   <time name="diis">    0.08    0.08</time>
   <time name="orth">    0.01    0.01</time>
   <time name="total">    0.15    0.15</time>
   <energy>
    <i name="alphaZ">     69.79103197 </i>
    <i name="ewald">  -2739.83957866 </i>
    <i name="hartreedc">   -655.80946014 </i>
    <i name="XCdc">    185.41786281 </i>
    <i name="pawpsdc">   7422.71278087 </i>
    <i name="pawaedc">  -7473.09947990 </i>
    <i name="eentropy">      0.00000000 </i>
    <i name="bandstr">   -655.12808896 </i>
    <i name="atom">   3769.08782378 </i>
    <i name="e_fr_energy">    -76.86710822 </i>
    <i name="e_wo_entrp">    -76.86710822 </i>
    <i name="e_0_energy">    -76.86710822 </i>
   </energy>
  </scstep>
  <structure>
   <crystal>
    <varray name="basis" >
     <v>       7.76730365       0.00000000       0.00000000 </v>
     <v>       0.00000000       6.13311186       0.00000000 </v>
     <v>       0.00000000       0.00000000       5.93528266 </v>
    </varray>
    <i name="volume">    282.74346510 </i>
    <varray name="rec_basis" >
     <v>       0.12874481       0.00000000       0.00000000 </v>
     <v>       0.00000000       0.16304937       0.00000000 </v>
     <v>       0.00000000       0.00000000       0.16848397 </v>
    </varray>
   </crystal>
   <varray name="positions" >
    <v>       0.00000000       0.77196583       0.41673988 </v>
    <v>       0.50000000       0.22803417       0.91673988 </v>
    <v>       0.20882731       0.60492110       0.29837426 </v>
    <v>       0.29117269       0.39507890       0.79837426 </v>
    <v>       0.70882731       0.39507890       0.79837426 </v>
    <v>       0.79117269       0.60492110       0.29837426 </v>
    <v>       0.00000000       0.06804207       0.26464670 </v>
    <v>       0.50000000       0.93195793       0.76464670 </v>
    <v>       0.00000000       0.81018568       0.75696269 </v>
    <v>       0.50000000       0.18981432       0.25696269 </v>
    <v>       0.00000000       0.43535495       0.00478500 </v>
    <v>       0.50000000       0.56464505       0.50478500 </v>
    <v>       0.26726880       0.76878310       0.94426718 </v>
    <v>       0.23273120       0.23121690       0.44426718 </v>
    <v>       0.76726880       0.23121690       0.44426718 </v>
    <v>       0.73273120       0.76878310       0.94426718 </v>
   </varray>
  </structure>
  <varray name="forces" >
   <v>       0.00000000      -0.02041078       0.02825984 </v>
   <v>       0.00000000       0.02041078       0.02825984 </v>
   <v>      -0.00537275       0.00283482      -0.00394614 </v>
   <v>       0.00537275      -0.00283482      -0.00394614 </v>
   <v>      -0.00537275      -0.00283482      -0.00394614 </v>
   <v>       0.00537275       0.00283482      -0.00394614 </v>
   <v>       0.00000000       0.00587566      -0.01098820 </v>
   <v>       0.00000000      -0.00587566      -0.01098820 </v>
   <v>       0.00000000      -0.00821711      -0.01974819 </v>
   <v>       0.00000000       0.00821711      -0.01974819 </v>
   <v>       0.00000000      -0.00078415       0.00018355 </v>
   <v>       0.00000000       0.00078415       0.00018355 </v>
   <v>      -0.00569919      -0.00031044       0.00509264 </v>
   <v>       0.00569919       0.00031044       0.00509264 </v>
   <v>      -0.00569919       0.00031044       0.00509264 </v>
   <v>       0.00569919      -0.00031044       0.00509264 </v>
  </varray>
  <varray name="stress" >
   <v>       0.19734174       0.00000000       0.00000000 </v>
   <v>       0.00000000       0.44489515       0.00000000 </v>
   <v>       0.00000000       0.00000000      -0.74003622 </v>
  </varray>
  <energy>
   <i name="e_fr_energy">    -76.86710822 </i>
   <i name="e_wo_entrp">    -76.86710822 </i>
   <i name="e_0_energy">      0.00000000 </i>
  </energy>
  <time name="totalsc">    3.43    3.46</time>
  <eigenvalues>
   <array>
    <dimension dim="1">band</dimension>
    <dimension dim="2">kpoint</dimension>
    <dimension dim="3">spin</dimension>
    <field>eigene</field>
    <field>occ</field>
    <set>
     <set comment="spin 1">
      <set comment="kpoint 1">
       <r>  -41.4066    1.0000 </r>
       <r>  -41.4066    1.0000 </r>
       <r>  -40.6910    1.0000 </r>
       <r>  -40.6907    1.0000 </r>
       <r>  -40.6902    1.0000 </r>
       <r>  -40.6899    1.0000 </r>
       <r>  -12.4351    1.0000 </r>
       <r>  -12.2215    1.0000 </r>
       <r>   -9.4942    1.0000 </r>
       <r>   -9.3013    1.0000 </r>
       <r>   -9.2785    1.0000 </r>
       <r>   -9.0254    1.0000 </r>
       <r>   -9.0177    1.0000 </r>
       <r>   -8.8956    1.0000 </r>
       <r>   -5.5212    1.0000 </r>
       <r>   -4.8128    1.0000 </r>
       <r>   -2.5774    1.0000 </r>
       <r>   -2.4519    1.0000 </r>
       <r>   -2.3000    1.0000 </r>
       <r>   -1.9845    1.0000 </r>
       <r>   -1.9536    1.0000 </r>
       <r>   -1.7746    1.0000 </r>
       <r>   -0.1617    1.0000 </r>
       <r>    0.0406    1.0000 </r>
       <r>    0.1744    1.0000 </r>
       <r>    0.6612    1.0000 </r>
       <r>    0.6733    1.0000 </r>
       <r>    0.9171    1.0000 </r>
       <r>    0.9772    1.0000 </r>
       <r>    1.3021    1.0000 </r>
       <r>    1.4100    1.0000 </r>
       <r>    1.4456    1.0000 </r>
       <r>    2.0802    1.0000 </r>
       <r>    2.1348    1.0000 </r>
       <r>    2.2616    1.0000 </r>
       <r>    2.2710    1.0000 </r>
       <r>    2.4728    1.0000 </r>
       <r>    2.7179    1.0000 </r>
       <r>    5.9031    0.0000 </r>
       <r>    5.9962    0.0000 </r>
       <r>    6.4245    0.0000 </r>
       <r>    6.4875    0.0000 </r>
       <r>    6.9756    0.0000 </r>
       <r>    7.3175    0.0000 </r>
       <r>    7.4857    0.0000 </r>
       <r>    7.6787    0.0000 </r>
       <r>    8.0695    0.0000 </r>
       <r>    8.9022    0.0000 </r>
      </set>
      <set comment="kpoint 2">
       <r>  -41.4065    1.0000 </r>
       <r>  -41.4065    1.0000 </r>
       <r>  -40.6908    1.0000 </r>
       <r>  -40.6906    1.0000 </r>
       <r>  -40.6901    1.0000 </r>
       <r>  -40.6900    1.0000 </r>
       <r>  -12.3852    1.0000 </r>
       <r>  -12.2787    1.0000 </r>
       <r>   -9.4047    1.0000 </r>
       <r>   -9.2894    1.0000 </r>
       <r>   -9.2599    1.0000 </r>
       <r>   -9.1312    1.0000 </r>
       <r>   -9.0071    1.0000 </r>
       <r>   -8.9387    1.0000 </r>
       <r>   -5.3269    1.0000 </r>
       <r>   -4.9733    1.0000 </r>
       <r>   -2.5478    1.0000 </r>
       <r>   -2.4969    1.0000 </r>
       <r>   -2.2344    1.0000 </r>
       <r>   -2.0454    1.0000 </r>
       <r>   -1.9223    1.0000 </r>
       <r>   -1.8411    1.0000 </r>
       <r>   -0.1927    1.0000 </r>
       <r>   -0.0562    1.0000 </r>
       <r>    0.5167    1.0000 </r>
       <r>    0.6780    1.0000 </r>
       <r>    0.7697    1.0000 </r>
       <r>    0.9200    1.0000 </r>
       <r>    1.2724    1.0000 </r>
       <r>    1.2924    1.0000 </r>
       <r>    1.3221    1.0000 </r>
       <r>    1.5530    1.0000 </r>
       <r>    1.7924    1.0000 </r>
       <r>    1.9378    1.0000 </r>
       <r>    2.0850    1.0000 </r>
       <r>    2.1454    1.0000 </r>
       <r>    2.3852    1.0000 </r>
       <r>    2.4771    1.0000 </r>
       <r>    6.1887    0.0000 </r>
       <r>    6.2559    0.0000 </r>
       <r>    6.6008    0.0000 </r>
       <r>    6.8387    0.0000 </r>
       <r>    6.9934    0.0000 </r>
       <r>    7.3221    0.0000 </r>
       <r>    7.4046    0.0000 </r>
       <r>    7.4869    0.0000 </r>
       <r>    8.6511    0.0000 </r>
       <r>    8.9422    0.0000 </r>
      </set>
      <set comment="kpoint 3">
       <r>  -41.4066    1.0000 </r>
       <r>  -41.4065    1.0000 </r>
       <r>  -40.6909    1.0000 </r>
       <r>  -40.6907    1.0000 </r>
       <r>  -40.6901    1.0000 </r>
       <r>  -40.6899    1.0000 </r>
       <r>  -12.3741    1.0000 </r>
       <r>  -12.2362    1.0000 </r>
       <r>   -9.4853    1.0000 </r>
       <r>   -9.4288    1.0000 </r>
       <r>   -9.3052    1.0000 </r>
       <r>   -9.0714    1.0000 </r>
       <r>   -9.0231    1.0000 </r>
       <r>   -8.9022    1.0000 </r>
       <r>   -5.3061    1.0000 </r>
       <r>   -4.7631    1.0000 </r>
       <r>   -2.6044    1.0000 </r>
       <r>   -2.3937    1.0000 </r>
       <r>   -2.2009    1.0000 </r>
       <r>   -2.0684    1.0000 </r>
       <r>   -1.8741    1.0000 </r>
       <r>   -1.7796    1.0000 </r>
       <r>   -0.1721    1.0000 </r>
       <r>    0.0626    1.0000 </r>
       <r>    0.3752    1.0000 </r>
       <r>    0.4019    1.0000 </r>
       <r>    0.6235    1.0000 </r>
       <r>    0.8513    1.0000 </r>
       <r>    1.1130    1.0000 </r>
       <r>    1.3793    1.0000 </r>
       <r>    1.6018    1.0000 </r>
       <r>    1.6694    1.0000 </r>
       <r>    1.8420    1.0000 </r>
       <r>    1.9422    1.0000 </r>
       <r>    2.0845    1.0000 </r>
       <r>    2.1767    1.0000 </r>
       <r>    2.4580    1.0000 </r>
       <r>    2.6260    1.0000 </r>
       <r>    5.6737    0.0000 </r>
       <r>    6.3006    0.0000 </r>
       <r>    6.4528    0.0000 </r>
       <r>    6.4868    0.0000 </r>
       <r>    7.0341    0.0000 </r>
       <r>    7.1707    0.0000 </r>
       <r>    7.1993    0.0000 </r>
       <r>    7.5785    0.0000 </r>
       <r>    8.3262    0.0000 </r>
       <r>    8.6986    0.0000 </r>
      </set>
      <set comment="kpoint 4">
       <r>  -41.4066    1.0000 </r>
       <r>  -41.4065    1.0000 </r>
       <r>  -40.6908    1.0000 </r>
       <r>  -40.6907    1.0000 </r>
       <r>  -40.6902    1.0000 </r>
       <r>  -40.6901    1.0000 </r>
       <r>  -12.3404    1.0000 </r>
       <r>  -12.2714    1.0000 </r>
       <r>   -9.4799    1.0000 </r>
       <r>   -9.4409    1.0000 </r>
       <r>   -9.2445    1.0000 </r>
       <r>   -9.1151    1.0000 </r>
       <r>   -9.0078    1.0000 </r>
       <r>   -8.9441    1.0000 </r>
       <r>   -5.1543    1.0000 </r>
       <r>   -4.8829    1.0000 </r>
       <r>   -2.5315    1.0000 </r>
       <r>   -2.4267    1.0000 </r>
       <r>   -2.1666    1.0000 </r>
       <r>   -2.1465    1.0000 </r>
       <r>   -1.8063    1.0000 </r>
       <r>   -1.7919    1.0000 </r>
       <r>   -0.0415    1.0000 </r>
       <r>    0.0140    1.0000 </r>
       <r>    0.2018    1.0000 </r>
       <r>    0.4313    1.0000 </r>
       <r>    0.6743    1.0000 </r>
       <r>    0.8098    1.0000 </r>
       <r>    0.9622    1.0000 </r>
       <r>    1.1647    1.0000 </r>
       <r>    1.6415    1.0000 </r>
       <r>    1.7852    1.0000 </r>
       <r>    1.8404    1.0000 </r>
       <r>    1.9423    1.0000 </r>
       <r>    2.1040    1.0000 </r>
       <r>    2.2488    1.0000 </r>
       <r>    2.3802    1.0000 </r>
       <r>    2.5836    1.0000 </r>
       <r>    5.8944    0.0000 </r>
       <r>    6.1492    0.0000 </r>
       <r>    6.6220    0.0000 </r>
       <r>    6.6879    0.0000 </r>
       <r>    7.1313    0.0000 </r>
       <r>    7.1814    0.0000 </r>
       <r>    7.4185    0.0000 </r>
       <r>    7.5384    0.0000 </r>
       <r>    8.4908    0.0000 </r>
       <r>    8.7641    0.0000 </r>
      </set>
      <set comment="kpoint 5">
       <r>  -41.4065    1.0000 </r>
       <r>  -41.4065    1.0000 </r>
       <r>  -40.6909    1.0000 </r>
       <r>  -40.6907    1.0000 </r>
       <r>  -40.6901    1.0000 </r>
       <r>  -40.6899    1.0000 </r>
       <r>  -12.3402    1.0000 </r>
       <r>  -12.2273    1.0000 </r>
       <r>   -9.4370    1.0000 </r>
       <r>   -9.3554    1.0000 </r>
       <r>   -9.3187    1.0000 </r>
       <r>   -9.1633    1.0000 </r>
       <r>   -9.0607    1.0000 </r>
       <r>   -9.0570    1.0000 </r>
       <r>   -5.2405    1.0000 </r>
       <r>   -4.8459    1.0000 </r>
       <r>   -2.2851    1.0000 </r>
       <r>   -2.0755    1.0000 </r>
       <r>   -2.0529    1.0000 </r>
       <r>   -2.0468    1.0000 </r>
       <r>   -1.9936    1.0000 </r>
       <r>   -1.8360    1.0000 </r>
       <r>    0.0211    1.0000 </r>
       <r>    0.0814    1.0000 </r>
       <r>    0.1546    1.0000 </r>
       <r>    0.1778    1.0000 </r>
       <r>    0.4804    1.0000 </r>
       <r>    0.8057    1.0000 </r>
       <r>    1.0546    1.0000 </r>
       <r>    1.3626    1.0000 </r>
       <r>    1.5589    1.0000 </r>
       <r>    1.6724    1.0000 </r>
       <r>    1.7690    1.0000 </r>
       <r>    1.9815    1.0000 </r>
       <r>    2.0574    1.0000 </r>
       <r>    2.3516    1.0000 </r>
       <r>    2.5052    1.0000 </r>
       <r>    2.6633    1.0000 </r>
       <r>    5.3299    0.0000 </r>
       <r>    5.8279    0.0000 </r>
       <r>    6.4788    0.0000 </r>
       <r>    6.4863    0.0000 </r>
       <r>    7.1058    0.0000 </r>
       <r>    7.3045    0.0000 </r>
       <r>    7.4541    0.0000 </r>
       <r>    7.5294    0.0000 </r>
       <r>    8.1048    0.0000 </r>
       <r>    8.9734    0.0000 </r>
      </set>
      <set comment="kpoint 6">
       <r>  -41.4065    1.0000 </r>
       <r>  -41.4065    1.0000 </r>
       <r>  -40.6907    1.0000 </r>
       <r>  -40.6906    1.0000 </r>
       <r>  -40.6902    1.0000 </r>
       <r>  -40.6900    1.0000 </r>
       <r>  -12.3115    1.0000 </r>
       <r>  -12.2549    1.0000 </r>
       <r>   -9.4838    1.0000 </r>
       <r>   -9.4080    1.0000 </r>
       <r>   -9.2492    1.0000 </r>
       <r>   -9.1936    1.0000 </r>
       <r>   -9.0409    1.0000 </r>
       <r>   -9.0148    1.0000 </r>
       <r>   -5.1467    1.0000 </r>
       <r>   -4.9492    1.0000 </r>
       <r>   -2.2899    1.0000 </r>
       <r>   -2.2364    1.0000 </r>
       <r>   -2.0942    1.0000 </r>
       <r>   -1.9600    1.0000 </r>
       <r>   -1.8503    1.0000 </r>
       <r>   -1.8215    1.0000 </r>
       <r>    0.0091    1.0000 </r>
       <r>    0.0640    1.0000 </r>
       <r>    0.3265    1.0000 </r>
       <r>    0.4625    1.0000 </r>
       <r>    0.4927    1.0000 </r>
       <r>    0.7450    1.0000 </r>
       <r>    1.1186    1.0000 </r>
       <r>    1.2314    1.0000 </r>
       <r>    1.5000    1.0000 </r>
       <r>    1.6619    1.0000 </r>
       <r>    1.6725    1.0000 </r>
       <r>    1.7871    1.0000 </r>
       <r>    1.7972    1.0000 </r>
       <r>    2.0671    1.0000 </r>
       <r>    2.5857    1.0000 </r>
       <r>    2.6523    1.0000 </r>
       <r>    5.5853    0.0000 </r>
       <r>    5.8424    0.0000 </r>
       <r>    6.7392    0.0000 </r>
       <r>    6.7825    0.0000 </r>
       <r>    7.1640    0.0000 </r>
       <r>    7.1770    0.0000 </r>
       <r>    7.5412    0.0000 </r>
       <r>    7.6141    0.0000 </r>
       <r>    8.1888    0.0000 </r>
       <r>    8.6170    0.0000 </r>
      </set>
      <set comment="kpoint 7">
       <r>  -41.4065    1.0000 </r>
       <r>  -41.4065    1.0000 </r>
       <r>  -40.6908    1.0000 </r>
       <r>  -40.6907    1.0000 </r>
       <r>  -40.6900    1.0000 </r>
       <r>  -40.6900    1.0000 </r>
       <r>  -12.2942    1.0000 </r>
       <r>  -12.2212    1.0000 </r>
       <r>   -9.4465    1.0000 </r>
       <r>   -9.3890    1.0000 </r>
       <r>   -9.3494    1.0000 </r>
       <r>   -9.2418    1.0000 </r>
       <r>   -9.1233    1.0000 </r>
       <r>   -9.0584    1.0000 </r>
       <r>   -5.0375    1.0000 </r>
       <r>   -4.7428    1.0000 </r>
       <r>   -2.2633    1.0000 </r>
       <r>   -2.2243    1.0000 </r>
       <r>   -2.0813    1.0000 </r>
       <r>   -2.0351    1.0000 </r>
       <r>   -1.8685    1.0000 </r>
       <r>   -1.7072    1.0000 </r>
       <r>    0.0082    1.0000 </r>
       <r>    0.1817    1.0000 </r>
       <r>    0.3474    1.0000 </r>
       <r>    0.4829    1.0000 </r>
       <r>    0.6086    1.0000 </r>
       <r>    0.7665    1.0000 </r>
       <r>    0.8534    1.0000 </r>
       <r>    1.1482    1.0000 </r>
       <r>    1.2519    1.0000 </r>
       <r>    1.2538    1.0000 </r>
       <r>    1.6926    1.0000 </r>
       <r>    2.1292    1.0000 </r>
       <r>    2.1552    1.0000 </r>
       <r>    2.3170    1.0000 </r>
       <r>    2.4988    1.0000 </r>
       <r>    2.5044    1.0000 </r>
       <r>    5.4864    0.0000 </r>
       <r>    5.9779    0.0000 </r>
       <r>    6.4325    0.0000 </r>
       <r>    6.8210    0.0000 </r>
       <r>    6.8264    0.0000 </r>
       <r>    6.9190    0.0000 </r>
       <r>    7.1529    0.0000 </r>
       <r>    7.2529    0.0000 </r>
       <r>    8.4881    0.0000 </r>
       <r>    8.7077    0.0000 </r>
      </set>
      <set comment="kpoint 8">
       <r>  -41.4066    1.0000 </r>
       <r>  -41.4065    1.0000 </r>
       <r>  -40.6907    1.0000 </r>
       <r>  -40.6907    1.0000 </r>
       <r>  -40.6901    1.0000 </r>
       <r>  -40.6901    1.0000 </r>
       <r>  -12.2751    1.0000 </r>
       <r>  -12.2385    1.0000 </r>
       <r>   -9.4425    1.0000 </r>
       <r>   -9.4127    1.0000 </r>
       <r>   -9.3338    1.0000 </r>
       <r>   -9.2751    1.0000 </r>
       <r>   -9.0984    1.0000 </r>
       <r>   -9.0587    1.0000 </r>
       <r>   -4.9438    1.0000 </r>
       <r>   -4.7954    1.0000 </r>
       <r>   -2.2610    1.0000 </r>
       <r>   -2.2063    1.0000 </r>
       <r>   -2.0731    1.0000 </r>
       <r>   -1.9605    1.0000 </r>
       <r>   -1.8420    1.0000 </r>
       <r>   -1.7472    1.0000 </r>
       <r>   -0.0949    1.0000 </r>
       <r>    0.0738    1.0000 </r>
       <r>    0.2531    1.0000 </r>
       <r>    0.4231    1.0000 </r>
       <r>    0.6199    1.0000 </r>
       <r>    0.6581    1.0000 </r>
       <r>    1.0039    1.0000 </r>
       <r>    1.0645    1.0000 </r>
       <r>    1.3436    1.0000 </r>
       <r>    1.4098    1.0000 </r>
       <r>    1.6577    1.0000 </r>
       <r>    1.9442    1.0000 </r>
       <r>    2.1731    1.0000 </r>
       <r>    2.2419    1.0000 </r>
       <r>    2.4922    1.0000 </r>
       <r>    2.6068    1.0000 </r>
       <r>    5.6573    0.0000 </r>
       <r>    5.9297    0.0000 </r>
       <r>    6.6521    0.0000 </r>
       <r>    6.6826    0.0000 </r>
       <r>    6.9341    0.0000 </r>
       <r>    7.0928    0.0000 </r>
       <r>    7.2915    0.0000 </r>
       <r>    7.3830    0.0000 </r>
       <r>    8.5971    0.0000 </r>
       <r>    8.8940    0.0000 </r>
      </set>
     </set>
    </set>
   </array>
  </eigenvalues>
  <separator name="orbital magnetization" >
   <v name="MAGDIPOLOUT">      0.00000000      0.00000000      0.00000000</v>
  </separator>
  <dos>
   <i name="efermi">      2.71791090 </i>
   <total>
    <array>
     <dimension dim="1">gridpoints</dimension>
     <dimension dim="2">spin</dimension>
     <field>energy</field>
     <field>total</field>
     <field>integrated</field>
     <set>
      <set comment="spin 1">
       <r>   -43.9256     0.0000     0.0000 </r>
       <r>   -43.7409     0.0000     0.0000 </r>
       <r>   -43.5561     0.0000     0.0000 </r>
       <r>   -43.3714     0.0000     0.0000 </r>
       <r>   -43.1867     0.0000     0.0000 </r>
       <r>   -43.0020     0.0000     0.0000 </r>
       <r>   -42.8172     0.0000     0.0000 </r>
       <r>   -42.6325     0.0000     0.0000 </r>
       <r>   -42.4478     0.0000     0.0000 </r>
       <r>   -42.2631     0.0000     0.0000 </r>
       <r>   -42.0783     0.0000     0.0000 </r>
       <r>   -41.8936     0.0000     0.0000 </r>
       <r>   -41.7089     0.0000     0.0000 </r>
       <r>   -41.5241     0.0000     0.0000 </r>
       <r>   -41.3394     0.0000     4.0000 </r>
       <r>   -41.1547     0.0000     4.0000 </r>
       <r>   -40.9700     0.0000     4.0000 </r>
       <r>   -40.7852     0.0000     4.0000 </r>
       <r>   -40.6005     0.0000    12.0000 </r>
       <r>   -40.4158     0.0000    12.0000 </r>
       <r>   -40.2311     0.0000    12.0000 </r>
       <r>   -40.0463     0.0000    12.0000 </r>
       <r>   -39.8616     0.0000    12.0000 </r>
       <r>   -39.6769     0.0000    12.0000 </r>
       <r>   -39.4922     0.0000    12.0000 </r>
       <r>   -39.3074     0.0000    12.0000 </r>
       <r>   -39.1227     0.0000    12.0000 </r>
       <r>   -38.9380     0.0000    12.0000 </r>
       <r>   -38.7532     0.0000    12.0000 </r>
       <r>   -38.5685     0.0000    12.0000 </r>
       <r>   -38.3838     0.0000    12.0000 </r>
       <r>   -38.1991     0.0000    12.0000 </r>
       <r>   -38.0143     0.0000    12.0000 </r>
       <r>   -37.8296     0.0000    12.0000 </r>
       <r>   -37.6449     0.0000    12.0000 </r>
       <r>   -37.4602     0.0000    12.0000 </r>
       <r>   -37.2754     0.0000    12.0000 </r>
       <r>   -37.0907     0.0000    12.0000 </r>
       <r>   -36.9060     0.0000    12.0000 </r>
       <r>   -36.7212     0.0000    12.0000 </r>
       <r>   -36.5365     0.0000    12.0000 </r>
       <r>   -36.3518     0.0000    12.0000 </r>
       <r>   -36.1671     0.0000    12.0000 </r>
       <r>   -35.9823     0.0000    12.0000 </r>
       <r>   -35.7976     0.0000    12.0000 </r>
       <r>   -35.6129     0.0000    12.0000 </r>
       <r>   -35.4282     0.0000    12.0000 </r>
       <r>   -35.2434     0.0000    12.0000 </r>
       <r>   -35.0587     0.0000    12.0000 </r>
       <r>   -34.8740     0.0000    12.0000 </r>
       <r>   -34.6893     0.0000    12.0000 </r>
       <r>   -34.5045     0.0000    12.0000 </r>
       <r>   -34.3198     0.0000    12.0000 </r>
       <r>   -34.1351     0.0000    12.0000 </r>
       <r>   -33.9503     0.0000    12.0000 </r>
       <r>   -33.7656     0.0000    12.0000 </r>
       <r>   -33.5809     0.0000    12.0000 </r>
       <r>   -33.3962     0.0000    12.0000 </r>
       <r>   -33.2114     0.0000    12.0000 </r>
       <r>   -33.0267     0.0000    12.0000 </r>
       <r>   -32.8420     0.0000    12.0000 </r>
       <r>   -32.6573     0.0000    12.0000 </r>
       <r>   -32.4725     0.0000    12.0000 </r>
       <r>   -32.2878     0.0000    12.0000 </r>
       <r>   -32.1031     0.0000    12.0000 </r>
       <r>   -31.9184     0.0000    12.0000 </r>
       <r>   -31.7336     0.0000    12.0000 </r>
       <r>   -31.5489     0.0000    12.0000 </r>
       <r>   -31.3642     0.0000    12.0000 </r>
       <r>   -31.1794     0.0000    12.0000 </r>
       <r>   -30.9947     0.0000    12.0000 </r>
       <r>   -30.8100     0.0000    12.0000 </r>
       <r>   -30.6253     0.0000    12.0000 </r>
       <r>   -30.4405     0.0000    12.0000 </r>
       <r>   -30.2558     0.0000    12.0000 </r>
       <r>   -30.0711     0.0000    12.0000 </r>
       <r>   -29.8864     0.0000    12.0000 </r>
       <r>   -29.7016     0.0000    12.0000 </r>
       <r>   -29.5169     0.0000    12.0000 </r>
       <r>   -29.3322     0.0000    12.0000 </r>
       <r>   -29.1475     0.0000    12.0000 </r>
       <r>   -28.9627     0.0000    12.0000 </r>
       <r>   -28.7780     0.0000    12.0000 </r>
       <r>   -28.5933     0.0000    12.0000 </r>
       <r>   -28.4085     0.0000    12.0000 </r>
       <r>   -28.2238     0.0000    12.0000 </r>
       <r>   -28.0391     0.0000    12.0000 </r>
       <r>   -27.8544     0.0000    12.0000 </r>
       <r>   -27.6696     0.0000    12.0000 </r>
       <r>   -27.4849     0.0000    12.0000 </r>
       <r>   -27.3002     0.0000    12.0000 </r>
       <r>   -27.1155     0.0000    12.0000 </r>
       <r>   -26.9307     0.0000    12.0000 </r>
       <r>   -26.7460     0.0000    12.0000 </r>
       <r>   -26.5613     0.0000    12.0000 </r>
       <r>   -26.3766     0.0000    12.0000 </r>
       <r>   -26.1918     0.0000    12.0000 </r>
       <r>   -26.0071     0.0000    12.0000 </r>
       <r>   -25.8224     0.0000    12.0000 </r>
       <r>   -25.6376     0.0000    12.0000 </r>
       <r>   -25.4529     0.0000    12.0000 </r>
       <r>   -25.2682     0.0000    12.0000 </r>
       <r>   -25.0835     0.0000    12.0000 </r>
       <r>   -24.8987     0.0000    12.0000 </r>
       <r>   -24.7140     0.0000    12.0000 </r>
       <r>   -24.5293     0.0000    12.0000 </r>
       <r>   -24.3446     0.0000    12.0000 </r>
       <r>   -24.1598     0.0000    12.0000 </r>
       <r>   -23.9751     0.0000    12.0000 </r>
       <r>   -23.7904     0.0000    12.0000 </r>
       <r>   -23.6057     0.0000    12.0000 </r>
       <r>   -23.4209     0.0000    12.0000 </r>
       <r>   -23.2362     0.0000    12.0000 </r>
       <r>   -23.0515     0.0000    12.0000 </r>
       <r>   -22.8667     0.0000    12.0000 </r>
       <r>   -22.6820     0.0000    12.0000 </r>
       <r>   -22.4973     0.0000    12.0000 </r>
       <r>   -22.3126     0.0000    12.0000 </r>
       <r>   -22.1278     0.0000    12.0000 </r>
       <r>   -21.9431     0.0000    12.0000 </r>
       <r>   -21.7584     0.0000    12.0000 </r>
       <r>   -21.5737     0.0000    12.0000 </r>
       <r>   -21.3889     0.0000    12.0000 </r>
       <r>   -21.2042     0.0000    12.0000 </r>
       <r>   -21.0195     0.0000    12.0000 </r>
       <r>   -20.8347     0.0000    12.0000 </r>
       <r>   -20.6500     0.0000    12.0000 </r>
       <r>   -20.4653     0.0000    12.0000 </r>
       <r>   -20.2806     0.0000    12.0000 </r>
       <r>   -20.0958     0.0000    12.0000 </r>
       <r>   -19.9111     0.0000    12.0000 </r>
       <r>   -19.7264     0.0000    12.0000 </r>
       <r>   -19.5417     0.0000    12.0000 </r>
       <r>   -19.3569     0.0000    12.0000 </r>
       <r>   -19.1722     0.0000    12.0000 </r>
       <r>   -18.9875     0.0000    12.0000 </r>
       <r>   -18.8028     0.0000    12.0000 </r>
       <r>   -18.6180     0.0000    12.0000 </r>
       <r>   -18.4333     0.0000    12.0000 </r>
       <r>   -18.2486     0.0000    12.0000 </r>
       <r>   -18.0638     0.0000    12.0000 </r>
       <r>   -17.8791     0.0000    12.0000 </r>
       <r>   -17.6944     0.0000    12.0000 </r>
       <r>   -17.5097     0.0000    12.0000 </r>
       <r>   -17.3249     0.0000    12.0000 </r>
       <r>   -17.1402     0.0000    12.0000 </r>
       <r>   -16.9555     0.0000    12.0000 </r>
       <r>   -16.7708     0.0000    12.0000 </r>
       <r>   -16.5860     0.0000    12.0000 </r>
       <r>   -16.4013     0.0000    12.0000 </r>
       <r>   -16.2166     0.0000    12.0000 </r>
       <r>   -16.0319     0.0000    12.0000 </r>
       <r>   -15.8471     0.0000    12.0000 </r>
       <r>   -15.6624     0.0000    12.0000 </r>
       <r>   -15.4777     0.0000    12.0000 </r>
       <r>   -15.2929     0.0000    12.0000 </r>
       <r>   -15.1082     0.0000    12.0000 </r>
       <r>   -14.9235     0.0000    12.0000 </r>
       <r>   -14.7388     0.0000    12.0000 </r>
       <r>   -14.5540     0.0000    12.0000 </r>
       <r>   -14.3693     0.0000    12.0000 </r>
       <r>   -14.1846     0.0000    12.0000 </r>
       <r>   -13.9999     0.0000    12.0000 </r>
       <r>   -13.8151     0.0000    12.0000 </r>
       <r>   -13.6304     0.0000    12.0000 </r>
       <r>   -13.4457     0.0000    12.0000 </r>
       <r>   -13.2610     0.0000    12.0000 </r>
       <r>   -13.0762     0.0000    12.0000 </r>
       <r>   -12.8915     0.0000    12.0000 </r>
       <r>   -12.7068     0.0000    12.0000 </r>
       <r>   -12.5220     0.0000    12.0000 </r>
       <r>   -12.3373    18.8099    12.5317 </r>
       <r>   -12.1526     0.0000    16.0000 </r>
       <r>   -11.9679     0.0000    16.0000 </r>
       <r>   -11.7831     0.0000    16.0000 </r>
       <r>   -11.5984     0.0000    16.0000 </r>
       <r>   -11.4137     0.0000    16.0000 </r>
       <r>   -11.2290     0.0000    16.0000 </r>
       <r>   -11.0442     0.0000    16.0000 </r>
       <r>   -10.8595     0.0000    16.0000 </r>
       <r>   -10.6748     0.0000    16.0000 </r>
       <r>   -10.4901     0.0000    16.0000 </r>
       <r>   -10.3053     0.0000    16.0000 </r>
       <r>   -10.1206     0.0000    16.0000 </r>
       <r>    -9.9359     0.0000    16.0000 </r>
       <r>    -9.7511     0.0000    16.0000 </r>
       <r>    -9.5664     0.0000    16.0000 </r>
       <r>    -9.3817    14.5019    19.5216 </r>
       <r>    -9.1970    14.0049    22.9736 </r>
       <r>    -9.0122    23.7409    27.0196 </r>
       <r>    -8.8275     0.0000    28.0000 </r>
       <r>    -8.6428     0.0000    28.0000 </r>
       <r>    -8.4581     0.0000    28.0000 </r>
       <r>    -8.2733     0.0000    28.0000 </r>
       <r>    -8.0886     0.0000    28.0000 </r>
       <r>    -7.9039     0.0000    28.0000 </r>
       <r>    -7.7192     0.0000    28.0000 </r>
       <r>    -7.5344     0.0000    28.0000 </r>
       <r>    -7.3497     0.0000    28.0000 </r>
       <r>    -7.1650     0.0000    28.0000 </r>
       <r>    -6.9802     0.0000    28.0000 </r>
       <r>    -6.7955     0.0000    28.0000 </r>
       <r>    -6.6108     0.0000    28.0000 </r>
       <r>    -6.4261     0.0000    28.0000 </r>
       <r>    -6.2413     0.0000    28.0000 </r>
       <r>    -6.0566     0.0000    28.0000 </r>
       <r>    -5.8719     0.0000    28.0000 </r>
       <r>    -5.6872     0.0000    28.0000 </r>
       <r>    -5.5024     0.0106    28.0001 </r>
       <r>    -5.3177     1.3322    28.0849 </r>
       <r>    -5.1330     7.2752    28.8542 </r>
       <r>    -4.9482     7.4367    29.9528 </r>
       <r>    -4.7635     9.1595    31.8785 </r>
       <r>    -4.5788     0.0000    32.0000 </r>
       <r>    -4.3941     0.0000    32.0000 </r>
       <r>    -4.2093     0.0000    32.0000 </r>
       <r>    -4.0246     0.0000    32.0000 </r>
       <r>    -3.8399     0.0000    32.0000 </r>
       <r>    -3.6552     0.0000    32.0000 </r>
       <r>    -3.4704     0.0000    32.0000 </r>
       <r>    -3.2857     0.0000    32.0000 </r>
       <r>    -3.1010     0.0000    32.0000 </r>
       <r>    -2.9163     0.0000    32.0000 </r>
       <r>    -2.7315     0.0000    32.0000 </r>
       <r>    -2.5468     2.5568    32.0607 </r>
       <r>    -2.3621    10.4329    33.3309 </r>
       <r>    -2.1773    10.5274    36.1244 </r>
       <r>    -1.9926    14.4087    39.3897 </r>
       <r>    -1.8079    22.2146    42.3331 </r>
       <r>    -1.6232     0.0000    44.0000 </r>
       <r>    -1.4384     0.0000    44.0000 </r>
       <r>    -1.2537     0.0000    44.0000 </r>
       <r>    -1.0690     0.0000    44.0000 </r>
       <r>    -0.8843     0.0000    44.0000 </r>
       <r>    -0.6995     0.0000    44.0000 </r>
       <r>    -0.5148     0.0000    44.0000 </r>
       <r>    -0.3301     0.0000    44.0000 </r>
       <r>    -0.1454     4.4182    44.0874 </r>
       <r>     0.0394    13.6309    46.4465 </r>
       <r>     0.2241     9.2476    48.2352 </r>
       <r>     0.4088     7.4671    50.2220 </r>
       <r>     0.5936    10.0365    52.5545 </r>
       <r>     0.7783    11.9362    55.1951 </r>
       <r>     0.9630     9.2241    56.3408 </r>
       <r>     1.1477    13.0886    58.5821 </r>
       <r>     1.3325     9.6108    60.3128 </r>
       <r>     1.5172    11.2641    62.4907 </r>
       <r>     1.7019    12.8625    64.6400 </r>
       <r>     1.8866     7.6151    66.2847 </r>
       <r>     2.0714     9.4616    68.4991 </r>
       <r>     2.2561    11.3672    71.4461 </r>
       <r>     2.4408    10.0742    72.3992 </r>
       <r>     2.6255    14.0268    75.5769 </r>
       <r>     2.8103     0.0000    76.0000 </r>
       <r>     2.9950     0.0000    76.0000 </r>
       <r>     3.1797     0.0000    76.0000 </r>
       <r>     3.3645     0.0000    76.0000 </r>
       <r>     3.5492     0.0000    76.0000 </r>
       <r>     3.7339     0.0000    76.0000 </r>
       <r>     3.9186     0.0000    76.0000 </r>
       <r>     4.1034     0.0000    76.0000 </r>
       <r>     4.2881     0.0000    76.0000 </r>
       <r>     4.4728     0.0000    76.0000 </r>
       <r>     4.6575     0.0000    76.0000 </r>
       <r>     4.8423     0.0000    76.0000 </r>
       <r>     5.0270     0.0000    76.0000 </r>
       <r>     5.2117     0.0000    76.0000 </r>
       <r>     5.3964     0.6550    76.0207 </r>
       <r>     5.5812     4.4633    76.4701 </r>
       <r>     5.7659     3.4428    77.4730 </r>
       <r>     5.9506     9.6513    78.6739 </r>
       <r>     6.1354     4.2672    79.7287 </r>
       <r>     6.3201     0.0000    80.0000 </r>
       <r>     6.5048     7.5367    80.3929 </r>
       <r>     6.6895    15.3718    82.7636 </r>
       <r>     6.8743     2.8165    84.0980 </r>
       <r>     7.0590    12.4614    85.7399 </r>
       <r>     7.2437     9.2521    88.0777 </r>
       <r>     7.4284    13.4244    90.2588 </r>
       <r>     7.6132     1.9169    91.9724 </r>
       <r>     7.7979     0.0000    92.0000 </r>
       <r>     7.9826     0.0000    92.0000 </r>
       <r>     8.1673     1.3249    92.0513 </r>
       <r>     8.3521     3.6250    92.5254 </r>
       <r>     8.5368     6.9795    93.5275 </r>
       <r>     8.7215     7.9058    94.2924 </r>
       <r>     8.9063     3.9480    95.9032 </r>
       <r>     9.0910     0.0000    96.0000 </r>
       <r>     9.2757     0.0000    96.0000 </r>
       <r>     9.4604     0.0000    96.0000 </r>
       <r>     9.6452     0.0000    96.0000 </r>
       <r>     9.8299     0.0000    96.0000 </r>
       <r>    10.0146     0.0000    96.0000 </r>
       <r>    10.1993     0.0000    96.0000 </r>
       <r>    10.3841     0.0000    96.0000 </r>
       <r>    10.5688     0.0000    96.0000 </r>
       <r>    10.7535     0.0000    96.0000 </r>
       <r>    10.9383     0.0000    96.0000 </r>
       <r>    11.1230     0.0000    96.0000 </r>
       <r>    11.3077     0.0000    96.0000 </r>
       <r>    11.4924     0.0000    96.0000 </r>
      </set>
     </set>
    </array>
   </total>
  </dos>
 </calculation>
 <structure name="finalpos" >
  <crystal>
   <varray name="basis" >
    <v>       7.76730365       0.00000000       0.00000000 </v>
    <v>       0.00000000       6.13311186       0.00000000 </v>
    <v>       0.00000000       0.00000000       5.93528266 </v>
   </varray>
   <i name="volume">    282.74346510 </i>
   <varray name="rec_basis" >
    <v>       0.12874481       0.00000000       0.00000000 </v>
    <v>       0.00000000       0.16304937       0.00000000 </v>
    <v>       0.00000000       0.00000000       0.16848397 </v>
   </varray>
  </crystal>
  <varray name="positions" >
   <v>       0.00000000       0.77196583       0.41673988 </v>
   <v>       0.50000000       0.22803417       0.91673988 </v>
   <v>       0.20882731       0.60492110       0.29837426 </v>
   <v>       0.29117269       0.39507890       0.79837426 </v>
   <v>       0.70882731       0.39507890       0.79837426 </v>
   <v>       0.79117269       0.60492110       0.29837426 </v>
   <v>       0.00000000       0.06804207       0.26464670 </v>
   <v>       0.50000000       0.93195793       0.76464670 </v>
   <v>       0.00000000       0.81018568       0.75696269 </v>
   <v>       0.50000000       0.18981432       0.25696269 </v>
   <v>       0.00000000       0.43535495       0.00478500 </v>
   <v>       0.50000000       0.56464505       0.50478500 </v>
   <v>       0.26726880       0.76878310       0.94426718 </v>
   <v>       0.23273120       0.23121690       0.44426718 </v>
   <v>       0.76726880       0.23121690       0.44426718 </v>
   <v>       0.73273120       0.76878310       0.94426718 </v>
  </varray>
 </structure>
</modeling>
