unknown system                          
           1
     7.767304    0.000000    0.000000
     0.000000    6.133112    0.000000
     0.000000    0.000000    5.935283
   P    S    Li
   2   8   6
Direct configuration=     1
   0.00000000  0.77196583  0.41673988
   0.50000000  0.22803417  0.91673988
   0.20882731  0.60492110  0.29837426
   0.29117269  0.39507890  0.79837426
   0.70882731  0.39507890  0.79837426
   0.79117269  0.60492110  0.29837426
   0.00000000  0.06804207  0.26464670
   0.50000000  0.93195793  0.76464670
   0.00000000  0.81018568  0.75696269
   0.50000000  0.18981432  0.25696269
   0.00000000  0.43535495  0.00478500
   0.50000000  0.56464505  0.50478500
   0.26726880  0.76878310  0.94426718
   0.23273120  0.23121690  0.44426718
   0.76726880  0.23121690  0.44426718
   0.73273120  0.76878310  0.94426718
