   16   16    1    1
  0.1801737E+02  0.7516133E-09  0.6384004E-09  0.6007916E-09  0.5000000E-15
  1.000000000000000E-004
  CAR 
 unknown system                          
     76     10     48
