unknown system                          
           1
     7.516133   -0.000056    0.000004
     0.000053    6.384004   -0.000000
     0.000003   -0.000000    6.007916
   P    S    Li
   2   8   6
Direct configuration=     1
   0.00000079  0.62880249  0.33433774
   0.49999921  0.37119751  0.83433774
   0.21726469  0.80919177  0.32024714
   0.28273531  0.19080823  0.82024714
   0.71726469  0.19080823  0.82024714
   0.78273531  0.80919177  0.32024714
   0.00000181  0.46716814  0.61950381
   0.49999819  0.53283186  0.11950381
   0.00000230  0.42966210  0.07735259
   0.49999770  0.57033790  0.57735259
   0.99960478  0.16980441  0.88238707
   0.50039522  0.83019559  0.38238707
   0.37934041  0.15303731  0.50377651
   0.12065959  0.84696269  0.00377651
   0.87934041  0.84696269  0.00377651
   0.62065959  0.15303731  0.50377651
