  16  16   0   0
  0.1764096E+02  0.7175333E-09  0.5681478E-09  0.6923707E-09  0.5000000E-15
  1.000000000000000E-004
  CAR 
 unknown system                          
     11.56673338    -43.69028818  301      3.11701384      1.00000000
    -43.690  0.0000E+00  0.0000E+00
    -43.506  0.0000E+00  0.0000E+00
    -43.322  0.0000E+00  0.0000E+00
    -43.138  0.0000E+00  0.0000E+00
    -42.954  0.0000E+00  0.0000E+00
    -42.769  0.0000E+00  0.0000E+00
    -42.585  0.0000E+00  0.0000E+00
    -42.401  0.0000E+00  0.0000E+00
    -42.217  0.0000E+00  0.0000E+00
    -42.033  0.0000E+00  0.0000E+00
    -41.848  0.0000E+00  0.0000E+00
    -41.664  0.0000E+00  0.0000E+00
    -41.480  0.0000E+00  0.0000E+00
    -41.296  0.0000E+00  0.0000E+00
    -41.112  0.0000E+00  0.4000E+01
    -40.927  0.0000E+00  0.4000E+01
    -40.743  0.0000E+00  0.4000E+01
    -40.559  0.0000E+00  0.1200E+02
    -40.375  0.0000E+00  0.1200E+02
    -40.191  0.0000E+00  0.1200E+02
    -40.006  0.0000E+00  0.1200E+02
    -39.822  0.0000E+00  0.1200E+02
    -39.638  0.0000E+00  0.1200E+02
    -39.454  0.0000E+00  0.1200E+02
    -39.270  0.0000E+00  0.1200E+02
    -39.086  0.0000E+00  0.1200E+02
    -38.901  0.0000E+00  0.1200E+02
    -38.717  0.0000E+00  0.1200E+02
    -38.533  0.0000E+00  0.1200E+02
    -38.349  0.0000E+00  0.1200E+02
    -38.165  0.0000E+00  0.1200E+02
    -37.980  0.0000E+00  0.1200E+02
    -37.796  0.0000E+00  0.1200E+02
    -37.612  0.0000E+00  0.1200E+02
    -37.428  0.0000E+00  0.1200E+02
    -37.244  0.0000E+00  0.1200E+02
    -37.059  0.0000E+00  0.1200E+02
    -36.875  0.0000E+00  0.1200E+02
    -36.691  0.0000E+00  0.1200E+02
    -36.507  0.0000E+00  0.1200E+02
    -36.323  0.0000E+00  0.1200E+02
    -36.138  0.0000E+00  0.1200E+02
    -35.954  0.0000E+00  0.1200E+02
    -35.770  0.0000E+00  0.1200E+02
    -35.586  0.0000E+00  0.1200E+02
    -35.402  0.0000E+00  0.1200E+02
    -35.218  0.0000E+00  0.1200E+02
    -35.033  0.0000E+00  0.1200E+02
    -34.849  0.0000E+00  0.1200E+02
    -34.665  0.0000E+00  0.1200E+02
    -34.481  0.0000E+00  0.1200E+02
    -34.297  0.0000E+00  0.1200E+02
    -34.112  0.0000E+00  0.1200E+02
    -33.928  0.0000E+00  0.1200E+02
    -33.744  0.0000E+00  0.1200E+02
    -33.560  0.0000E+00  0.1200E+02
    -33.376  0.0000E+00  0.1200E+02
    -33.191  0.0000E+00  0.1200E+02
    -33.007  0.0000E+00  0.1200E+02
    -32.823  0.0000E+00  0.1200E+02
    -32.639  0.0000E+00  0.1200E+02
    -32.455  0.0000E+00  0.1200E+02
    -32.271  0.0000E+00  0.1200E+02
    -32.086  0.0000E+00  0.1200E+02
    -31.902  0.0000E+00  0.1200E+02
    -31.718  0.0000E+00  0.1200E+02
    -31.534  0.0000E+00  0.1200E+02
    -31.350  0.0000E+00  0.1200E+02
    -31.165  0.0000E+00  0.1200E+02
    -30.981  0.0000E+00  0.1200E+02
    -30.797  0.0000E+00  0.1200E+02
    -30.613  0.0000E+00  0.1200E+02
    -30.429  0.0000E+00  0.1200E+02
    -30.244  0.0000E+00  0.1200E+02
    -30.060  0.0000E+00  0.1200E+02
    -29.876  0.0000E+00  0.1200E+02
    -29.692  0.0000E+00  0.1200E+02
    -29.508  0.0000E+00  0.1200E+02
    -29.323  0.0000E+00  0.1200E+02
    -29.139  0.0000E+00  0.1200E+02
    -28.955  0.0000E+00  0.1200E+02
    -28.771  0.0000E+00  0.1200E+02
    -28.587  0.0000E+00  0.1200E+02
    -28.403  0.0000E+00  0.1200E+02
    -28.218  0.0000E+00  0.1200E+02
    -28.034  0.0000E+00  0.1200E+02
    -27.850  0.0000E+00  0.1200E+02
    -27.666  0.0000E+00  0.1200E+02
    -27.482  0.0000E+00  0.1200E+02
    -27.297  0.0000E+00  0.1200E+02
    -27.113  0.0000E+00  0.1200E+02
    -26.929  0.0000E+00  0.1200E+02
    -26.745  0.0000E+00  0.1200E+02
    -26.561  0.0000E+00  0.1200E+02
    -26.376  0.0000E+00  0.1200E+02
    -26.192  0.0000E+00  0.1200E+02
    -26.008  0.0000E+00  0.1200E+02
    -25.824  0.0000E+00  0.1200E+02
    -25.640  0.0000E+00  0.1200E+02
    -25.455  0.0000E+00  0.1200E+02
    -25.271  0.0000E+00  0.1200E+02
    -25.087  0.0000E+00  0.1200E+02
    -24.903  0.0000E+00  0.1200E+02
    -24.719  0.0000E+00  0.1200E+02
    -24.535  0.0000E+00  0.1200E+02
    -24.350  0.0000E+00  0.1200E+02
    -24.166  0.0000E+00  0.1200E+02
    -23.982  0.0000E+00  0.1200E+02
    -23.798  0.0000E+00  0.1200E+02
    -23.614  0.0000E+00  0.1200E+02
    -23.429  0.0000E+00  0.1200E+02
    -23.245  0.0000E+00  0.1200E+02
    -23.061  0.0000E+00  0.1200E+02
    -22.877  0.0000E+00  0.1200E+02
    -22.693  0.0000E+00  0.1200E+02
    -22.508  0.0000E+00  0.1200E+02
    -22.324  0.0000E+00  0.1200E+02
    -22.140  0.0000E+00  0.1200E+02
    -21.956  0.0000E+00  0.1200E+02
    -21.772  0.0000E+00  0.1200E+02
    -21.587  0.0000E+00  0.1200E+02
    -21.403  0.0000E+00  0.1200E+02
    -21.219  0.0000E+00  0.1200E+02
    -21.035  0.0000E+00  0.1200E+02
    -20.851  0.0000E+00  0.1200E+02
    -20.667  0.0000E+00  0.1200E+02
    -20.482  0.0000E+00  0.1200E+02
    -20.298  0.0000E+00  0.1200E+02
    -20.114  0.0000E+00  0.1200E+02
    -19.930  0.0000E+00  0.1200E+02
    -19.746  0.0000E+00  0.1200E+02
    -19.561  0.0000E+00  0.1200E+02
    -19.377  0.0000E+00  0.1200E+02
    -19.193  0.0000E+00  0.1200E+02
    -19.009  0.0000E+00  0.1200E+02
    -18.825  0.0000E+00  0.1200E+02
    -18.640  0.0000E+00  0.1200E+02
    -18.456  0.0000E+00  0.1200E+02
    -18.272  0.0000E+00  0.1200E+02
    -18.088  0.0000E+00  0.1200E+02
    -17.904  0.0000E+00  0.1200E+02
    -17.719  0.0000E+00  0.1200E+02
    -17.535  0.0000E+00  0.1200E+02
    -17.351  0.0000E+00  0.1200E+02
    -17.167  0.0000E+00  0.1200E+02
    -16.983  0.0000E+00  0.1200E+02
    -16.799  0.0000E+00  0.1200E+02
    -16.614  0.0000E+00  0.1200E+02
    -16.430  0.0000E+00  0.1200E+02
    -16.246  0.0000E+00  0.1200E+02
    -16.062  0.0000E+00  0.1200E+02
    -15.878  0.0000E+00  0.1200E+02
    -15.693  0.0000E+00  0.1200E+02
    -15.509  0.0000E+00  0.1200E+02
    -15.325  0.0000E+00  0.1200E+02
    -15.141  0.0000E+00  0.1200E+02
    -14.957  0.0000E+00  0.1200E+02
    -14.772  0.0000E+00  0.1200E+02
    -14.588  0.0000E+00  0.1200E+02
    -14.404  0.0000E+00  0.1200E+02
    -14.220  0.0000E+00  0.1200E+02
    -14.036  0.0000E+00  0.1200E+02
    -13.851  0.0000E+00  0.1200E+02
    -13.667  0.0000E+00  0.1200E+02
    -13.483  0.0000E+00  0.1200E+02
    -13.299  0.0000E+00  0.1200E+02
    -13.115  0.0000E+00  0.1200E+02
    -12.931  0.0000E+00  0.1200E+02
    -12.746  0.0000E+00  0.1200E+02
    -12.562  0.0000E+00  0.1200E+02
    -12.378  0.5040E+01  0.1209E+02
    -12.194  0.0000E+00  0.1600E+02
    -12.010  0.0000E+00  0.1600E+02
    -11.825  0.0000E+00  0.1600E+02
    -11.641  0.0000E+00  0.1600E+02
    -11.457  0.0000E+00  0.1600E+02
    -11.273  0.0000E+00  0.1600E+02
    -11.089  0.0000E+00  0.1600E+02
    -10.904  0.0000E+00  0.1600E+02
    -10.720  0.0000E+00  0.1600E+02
    -10.536  0.0000E+00  0.1600E+02
    -10.352  0.0000E+00  0.1600E+02
    -10.168  0.0000E+00  0.1600E+02
     -9.984  0.0000E+00  0.1600E+02
     -9.799  0.0000E+00  0.1600E+02
     -9.615  0.0000E+00  0.1600E+02
     -9.431  0.2449E+02  0.1708E+02
     -9.247  0.2100E+02  0.2170E+02
     -9.063  0.3689E+02  0.2528E+02
     -8.878  0.0000E+00  0.2800E+02
     -8.694  0.0000E+00  0.2800E+02
     -8.510  0.0000E+00  0.2800E+02
     -8.326  0.0000E+00  0.2800E+02
     -8.142  0.0000E+00  0.2800E+02
     -7.957  0.0000E+00  0.2800E+02
     -7.773  0.0000E+00  0.2800E+02
     -7.589  0.0000E+00  0.2800E+02
     -7.405  0.0000E+00  0.2800E+02
     -7.221  0.0000E+00  0.2800E+02
     -7.036  0.0000E+00  0.2800E+02
     -6.852  0.0000E+00  0.2800E+02
     -6.668  0.0000E+00  0.2800E+02
     -6.484  0.0000E+00  0.2800E+02
     -6.300  0.0000E+00  0.2800E+02
     -6.116  0.0000E+00  0.2800E+02
     -5.931  0.0000E+00  0.2800E+02
     -5.747  0.0000E+00  0.2800E+02
     -5.563  0.0000E+00  0.2800E+02
     -5.379  0.2343E-01  0.2800E+02
     -5.195  0.1341E+01  0.2808E+02
     -5.010  0.6254E+01  0.2875E+02
     -4.826  0.9861E+01  0.2995E+02
     -4.642  0.0000E+00  0.3200E+02
     -4.458  0.0000E+00  0.3200E+02
     -4.274  0.0000E+00  0.3200E+02
     -4.089  0.0000E+00  0.3200E+02
     -3.905  0.0000E+00  0.3200E+02
     -3.721  0.0000E+00  0.3200E+02
     -3.537  0.0000E+00  0.3200E+02
     -3.353  0.0000E+00  0.3200E+02
     -3.168  0.0000E+00  0.3200E+02
     -2.984  0.0000E+00  0.3200E+02
     -2.800  0.0000E+00  0.3200E+02
     -2.616  0.0000E+00  0.3200E+02
     -2.432  0.4345E+01  0.3216E+02
     -2.248  0.0000E+00  0.3400E+02
     -2.063  0.1289E+02  0.3716E+02
     -1.879  0.9599E+01  0.3947E+02
     -1.695  0.1003E+02  0.4101E+02
     -1.511  0.0000E+00  0.4400E+02
     -1.327  0.0000E+00  0.4400E+02
     -1.142  0.0000E+00  0.4400E+02
     -0.958  0.0000E+00  0.4400E+02
     -0.774  0.0000E+00  0.4400E+02
     -0.590  0.2722E-02  0.4400E+02
     -0.406  0.1402E+01  0.4408E+02
     -0.221  0.6500E+01  0.4472E+02
     -0.037  0.2103E+02  0.4696E+02
      0.147  0.4617E+01  0.4835E+02
      0.331  0.1113E+02  0.5053E+02
      0.515  0.1049E+02  0.5222E+02
      0.700  0.1431E+01  0.5407E+02
      0.884  0.9481E+01  0.5603E+02
      1.068  0.4877E+01  0.5748E+02
      1.252  0.9905E+01  0.5907E+02
      1.436  0.1740E+02  0.6046E+02
      1.620  0.1056E+02  0.6309E+02
      1.805  0.1453E+02  0.6497E+02
      1.989  0.1591E+02  0.6810E+02
      2.173  0.1906E+02  0.7109E+02
      2.357  0.1027E+02  0.7381E+02
      2.541  0.4607E+01  0.7524E+02
      2.726  0.1831E+01  0.7582E+02
      2.910  0.2073E+00  0.7599E+02
      3.094  0.0000E+00  0.7600E+02
      3.278  0.0000E+00  0.7600E+02
      3.462  0.0000E+00  0.7600E+02
      3.647  0.0000E+00  0.7600E+02
      3.831  0.0000E+00  0.7600E+02
      4.015  0.0000E+00  0.7600E+02
      4.199  0.0000E+00  0.7600E+02
      4.383  0.0000E+00  0.7600E+02
      4.568  0.0000E+00  0.7600E+02
      4.752  0.0000E+00  0.7600E+02
      4.936  0.9182E-01  0.7601E+02
      5.120  0.4044E+00  0.7605E+02
      5.304  0.1533E+01  0.7619E+02
      5.488  0.3169E+01  0.7666E+02
      5.673  0.3951E+01  0.7727E+02
      5.857  0.5745E+01  0.7833E+02
      6.041  0.3718E+01  0.7930E+02
      6.225  0.1536E+02  0.8016E+02
      6.409  0.3914E+01  0.8067E+02
      6.594  0.9237E+01  0.8191E+02
      6.778  0.7835E+01  0.8378E+02
      6.962  0.7815E+01  0.8545E+02
      7.146  0.2464E+01  0.8646E+02
      7.330  0.3906E+01  0.8787E+02
      7.515  0.2041E+02  0.8997E+02
      7.699  0.3584E+01  0.9168E+02
      7.883  0.0000E+00  0.9200E+02
      8.067  0.0000E+00  0.9200E+02
      8.251  0.3816E+01  0.9239E+02
      8.436  0.4319E+01  0.9314E+02
      8.620  0.5472E+01  0.9411E+02
      8.804  0.6040E+01  0.9510E+02
      8.988  0.1322E+01  0.9596E+02
      9.172  0.0000E+00  0.9600E+02
      9.356  0.0000E+00  0.9600E+02
      9.541  0.0000E+00  0.9600E+02
      9.725  0.0000E+00  0.9600E+02
      9.909  0.0000E+00  0.9600E+02
     10.093  0.0000E+00  0.9600E+02
     10.277  0.0000E+00  0.9600E+02
     10.462  0.0000E+00  0.9600E+02
     10.646  0.0000E+00  0.9600E+02
     10.830  0.0000E+00  0.9600E+02
     11.014  0.0000E+00  0.9600E+02
     11.198  0.0000E+00  0.9600E+02
     11.383  0.0000E+00  0.9600E+02
     11.567  0.0000E+00  0.9600E+02
