       N       E                     dE             d eps       ncg     rms          rms(c)
DAV:   1     0.498054342755E+03    0.49805E+03   -0.28214E+04   768   0.130E+03
DAV:   2    -0.128331427229E+02   -0.51089E+03   -0.48605E+03   928   0.308E+02
DAV:   3    -0.720556008800E+02   -0.59222E+02   -0.58743E+02  1056   0.961E+01
DAV:   4    -0.786713648920E+02   -0.66158E+01   -0.65925E+01  1416   0.305E+01
DAV:   5    -0.794480168114E+02   -0.77665E+00   -0.77653E+00  1128   0.693E+00    0.235E+01
RMM:   6    -0.773619087446E+02    0.20861E+01   -0.53378E+00   904   0.556E+00    0.151E+01
RMM:   7    -0.769272092440E+02    0.43470E+00   -0.33036E+00   938   0.457E+00    0.345E+00
RMM:   8    -0.768367150166E+02    0.90494E-01   -0.20031E-01  1106   0.151E+00    0.665E-01
RMM:   9    -0.768310331796E+02    0.56818E-02   -0.45480E-02  1058   0.622E-01    0.233E-01
RMM:  10    -0.768309362940E+02    0.96886E-04   -0.94512E-03  1252   0.264E-01    0.171E-01
RMM:  11    -0.768311567919E+02   -0.22050E-03   -0.34916E-03  1244   0.137E-01    0.724E-02
RMM:  12    -0.768312764590E+02   -0.11967E-03   -0.17505E-03  1206   0.975E-02    0.285E-02
RMM:  13    -0.768313306743E+02   -0.54215E-04   -0.62938E-04   857   0.580E-02    0.156E-02
RMM:  14    -0.768313546507E+02   -0.23976E-04   -0.29755E-04   971   0.502E-02    0.518E-03
RMM:  15    -0.768313645760E+02   -0.99253E-05   -0.13115E-04   761   0.393E-02
   1 F= -.76831365E+02 E0= -.76831365E+02  d E =0.000000E+00
