unknown system                          
           1
     7.175333    0.000000    0.000000
     0.000000    5.681478    0.000000
     0.000000    0.000000    6.923707
   P    S    Li
   2   8   6
Direct configuration=     1
   0.00000000  0.75296269  0.27528115
   0.50000000  0.24703731  0.77528115
   0.23059222  0.54373009  0.23514676
   0.26940778  0.45626991  0.73514676
   0.73059222  0.45626991  0.73514676
   0.76940778  0.54373009  0.23514676
   0.00000000  0.96049766  0.03263590
   0.50000000  0.03950234  0.53263590
   0.00000000  0.92092898  0.52965635
   0.50000000  0.07907102  0.02965635
   0.00000000  0.37511115  0.98644804
   0.50000000  0.62488885  0.48644804
   0.28292434  0.78153348  0.95056936
   0.21707566  0.21846652  0.45056936
   0.78292434  0.21846652  0.45056936
   0.71707566  0.78153348  0.95056936
