  16  16   0   0
  0.1798564E+02  0.7667166E-09  0.6222204E-09  0.6032077E-09  0.5000000E-15
  1.000000000000000E-004
  CAR 
 unknown system                          
     11.20354500    -43.88153094  301      2.25222016      1.00000000
    -43.882  0.0000E+00  0.0000E+00
    -43.698  0.0000E+00  0.0000E+00
    -43.514  0.0000E+00  0.0000E+00
    -43.331  0.0000E+00  0.0000E+00
    -43.147  0.0000E+00  0.0000E+00
    -42.963  0.0000E+00  0.0000E+00
    -42.780  0.0000E+00  0.0000E+00
    -42.596  0.0000E+00  0.0000E+00
    -42.413  0.0000E+00  0.0000E+00
    -42.229  0.0000E+00  0.0000E+00
    -42.045  0.0000E+00  0.0000E+00
    -41.862  0.0000E+00  0.0000E+00
    -41.678  0.0000E+00  0.0000E+00
    -41.495  0.0000E+00  0.0000E+00
    -41.311  0.0000E+00  0.4000E+01
    -41.127  0.0000E+00  0.4000E+01
    -40.944  0.0000E+00  0.4000E+01
    -40.760  0.0000E+00  0.4000E+01
    -40.576  0.0000E+00  0.1200E+02
    -40.393  0.0000E+00  0.1200E+02
    -40.209  0.0000E+00  0.1200E+02
    -40.026  0.0000E+00  0.1200E+02
    -39.842  0.0000E+00  0.1200E+02
    -39.658  0.0000E+00  0.1200E+02
    -39.475  0.0000E+00  0.1200E+02
    -39.291  0.0000E+00  0.1200E+02
    -39.107  0.0000E+00  0.1200E+02
    -38.924  0.0000E+00  0.1200E+02
    -38.740  0.0000E+00  0.1200E+02
    -38.557  0.0000E+00  0.1200E+02
    -38.373  0.0000E+00  0.1200E+02
    -38.189  0.0000E+00  0.1200E+02
    -38.006  0.0000E+00  0.1200E+02
    -37.822  0.0000E+00  0.1200E+02
    -37.639  0.0000E+00  0.1200E+02
    -37.455  0.0000E+00  0.1200E+02
    -37.271  0.0000E+00  0.1200E+02
    -37.088  0.0000E+00  0.1200E+02
    -36.904  0.0000E+00  0.1200E+02
    -36.720  0.0000E+00  0.1200E+02
    -36.537  0.0000E+00  0.1200E+02
    -36.353  0.0000E+00  0.1200E+02
    -36.170  0.0000E+00  0.1200E+02
    -35.986  0.0000E+00  0.1200E+02
    -35.802  0.0000E+00  0.1200E+02
    -35.619  0.0000E+00  0.1200E+02
    -35.435  0.0000E+00  0.1200E+02
    -35.252  0.0000E+00  0.1200E+02
    -35.068  0.0000E+00  0.1200E+02
    -34.884  0.0000E+00  0.1200E+02
    -34.701  0.0000E+00  0.1200E+02
    -34.517  0.0000E+00  0.1200E+02
    -34.333  0.0000E+00  0.1200E+02
    -34.150  0.0000E+00  0.1200E+02
    -33.966  0.0000E+00  0.1200E+02
    -33.783  0.0000E+00  0.1200E+02
    -33.599  0.0000E+00  0.1200E+02
    -33.415  0.0000E+00  0.1200E+02
    -33.232  0.0000E+00  0.1200E+02
    -33.048  0.0000E+00  0.1200E+02
    -32.865  0.0000E+00  0.1200E+02
    -32.681  0.0000E+00  0.1200E+02
    -32.497  0.0000E+00  0.1200E+02
    -32.314  0.0000E+00  0.1200E+02
    -32.130  0.0000E+00  0.1200E+02
    -31.946  0.0000E+00  0.1200E+02
    -31.763  0.0000E+00  0.1200E+02
    -31.579  0.0000E+00  0.1200E+02
    -31.396  0.0000E+00  0.1200E+02
    -31.212  0.0000E+00  0.1200E+02
    -31.028  0.0000E+00  0.1200E+02
    -30.845  0.0000E+00  0.1200E+02
    -30.661  0.0000E+00  0.1200E+02
    -30.477  0.0000E+00  0.1200E+02
    -30.294  0.0000E+00  0.1200E+02
    -30.110  0.0000E+00  0.1200E+02
    -29.927  0.0000E+00  0.1200E+02
    -29.743  0.0000E+00  0.1200E+02
    -29.559  0.0000E+00  0.1200E+02
    -29.376  0.0000E+00  0.1200E+02
    -29.192  0.0000E+00  0.1200E+02
    -29.009  0.0000E+00  0.1200E+02
    -28.825  0.0000E+00  0.1200E+02
    -28.641  0.0000E+00  0.1200E+02
    -28.458  0.0000E+00  0.1200E+02
    -28.274  0.0000E+00  0.1200E+02
    -28.090  0.0000E+00  0.1200E+02
    -27.907  0.0000E+00  0.1200E+02
    -27.723  0.0000E+00  0.1200E+02
    -27.540  0.0000E+00  0.1200E+02
    -27.356  0.0000E+00  0.1200E+02
    -27.172  0.0000E+00  0.1200E+02
    -26.989  0.0000E+00  0.1200E+02
    -26.805  0.0000E+00  0.1200E+02
    -26.622  0.0000E+00  0.1200E+02
    -26.438  0.0000E+00  0.1200E+02
    -26.254  0.0000E+00  0.1200E+02
    -26.071  0.0000E+00  0.1200E+02
    -25.887  0.0000E+00  0.1200E+02
    -25.703  0.0000E+00  0.1200E+02
    -25.520  0.0000E+00  0.1200E+02
    -25.336  0.0000E+00  0.1200E+02
    -25.153  0.0000E+00  0.1200E+02
    -24.969  0.0000E+00  0.1200E+02
    -24.785  0.0000E+00  0.1200E+02
    -24.602  0.0000E+00  0.1200E+02
    -24.418  0.0000E+00  0.1200E+02
    -24.235  0.0000E+00  0.1200E+02
    -24.051  0.0000E+00  0.1200E+02
    -23.867  0.0000E+00  0.1200E+02
    -23.684  0.0000E+00  0.1200E+02
    -23.500  0.0000E+00  0.1200E+02
    -23.316  0.0000E+00  0.1200E+02
    -23.133  0.0000E+00  0.1200E+02
    -22.949  0.0000E+00  0.1200E+02
    -22.766  0.0000E+00  0.1200E+02
    -22.582  0.0000E+00  0.1200E+02
    -22.398  0.0000E+00  0.1200E+02
    -22.215  0.0000E+00  0.1200E+02
    -22.031  0.0000E+00  0.1200E+02
    -21.848  0.0000E+00  0.1200E+02
    -21.664  0.0000E+00  0.1200E+02
    -21.480  0.0000E+00  0.1200E+02
    -21.297  0.0000E+00  0.1200E+02
    -21.113  0.0000E+00  0.1200E+02
    -20.929  0.0000E+00  0.1200E+02
    -20.746  0.0000E+00  0.1200E+02
    -20.562  0.0000E+00  0.1200E+02
    -20.379  0.0000E+00  0.1200E+02
    -20.195  0.0000E+00  0.1200E+02
    -20.011  0.0000E+00  0.1200E+02
    -19.828  0.0000E+00  0.1200E+02
    -19.644  0.0000E+00  0.1200E+02
    -19.460  0.0000E+00  0.1200E+02
    -19.277  0.0000E+00  0.1200E+02
    -19.093  0.0000E+00  0.1200E+02
    -18.910  0.0000E+00  0.1200E+02
    -18.726  0.0000E+00  0.1200E+02
    -18.542  0.0000E+00  0.1200E+02
    -18.359  0.0000E+00  0.1200E+02
    -18.175  0.0000E+00  0.1200E+02
    -17.992  0.0000E+00  0.1200E+02
    -17.808  0.0000E+00  0.1200E+02
    -17.624  0.0000E+00  0.1200E+02
    -17.441  0.0000E+00  0.1200E+02
    -17.257  0.0000E+00  0.1200E+02
    -17.073  0.0000E+00  0.1200E+02
    -16.890  0.0000E+00  0.1200E+02
    -16.706  0.0000E+00  0.1200E+02
    -16.523  0.0000E+00  0.1200E+02
    -16.339  0.0000E+00  0.1200E+02
    -16.155  0.0000E+00  0.1200E+02
    -15.972  0.0000E+00  0.1200E+02
    -15.788  0.0000E+00  0.1200E+02
    -15.605  0.0000E+00  0.1200E+02
    -15.421  0.0000E+00  0.1200E+02
    -15.237  0.0000E+00  0.1200E+02
    -15.054  0.0000E+00  0.1200E+02
    -14.870  0.0000E+00  0.1200E+02
    -14.686  0.0000E+00  0.1200E+02
    -14.503  0.0000E+00  0.1200E+02
    -14.319  0.0000E+00  0.1200E+02
    -14.136  0.0000E+00  0.1200E+02
    -13.952  0.0000E+00  0.1200E+02
    -13.768  0.0000E+00  0.1200E+02
    -13.585  0.0000E+00  0.1200E+02
    -13.401  0.0000E+00  0.1200E+02
    -13.218  0.0000E+00  0.1200E+02
    -13.034  0.0000E+00  0.1200E+02
    -12.850  0.0000E+00  0.1200E+02
    -12.667  0.0000E+00  0.1200E+02
    -12.483  0.6925E+01  0.1598E+02
    -12.299  0.0000E+00  0.1600E+02
    -12.116  0.0000E+00  0.1600E+02
    -11.932  0.0000E+00  0.1600E+02
    -11.749  0.0000E+00  0.1600E+02
    -11.565  0.0000E+00  0.1600E+02
    -11.381  0.0000E+00  0.1600E+02
    -11.198  0.0000E+00  0.1600E+02
    -11.014  0.0000E+00  0.1600E+02
    -10.830  0.0000E+00  0.1600E+02
    -10.647  0.0000E+00  0.1600E+02
    -10.463  0.0000E+00  0.1600E+02
    -10.280  0.0000E+00  0.1600E+02
    -10.096  0.0000E+00  0.1600E+02
     -9.912  0.0000E+00  0.1600E+02
     -9.729  0.1076E+02  0.1608E+02
     -9.545  0.1709E+02  0.1979E+02
     -9.362  0.1770E+02  0.2446E+02
     -9.178  0.1547E+01  0.2798E+02
     -8.994  0.0000E+00  0.2800E+02
     -8.811  0.0000E+00  0.2800E+02
     -8.627  0.0000E+00  0.2800E+02
     -8.443  0.0000E+00  0.2800E+02
     -8.260  0.0000E+00  0.2800E+02
     -8.076  0.0000E+00  0.2800E+02
     -7.893  0.0000E+00  0.2800E+02
     -7.709  0.0000E+00  0.2800E+02
     -7.525  0.0000E+00  0.2800E+02
     -7.342  0.0000E+00  0.2800E+02
     -7.158  0.0000E+00  0.2800E+02
     -6.975  0.0000E+00  0.2800E+02
     -6.791  0.0000E+00  0.2800E+02
     -6.607  0.0000E+00  0.2800E+02
     -6.424  0.0000E+00  0.2800E+02
     -6.240  0.0000E+00  0.2800E+02
     -6.056  0.0000E+00  0.2800E+02
     -5.873  0.0000E+00  0.2800E+02
     -5.689  0.0000E+00  0.2800E+02
     -5.506  0.1106E+01  0.2806E+02
     -5.322  0.9088E+01  0.2897E+02
     -5.138  0.1878E+02  0.3044E+02
     -4.955  0.0000E+00  0.3200E+02
     -4.771  0.0000E+00  0.3200E+02
     -4.588  0.0000E+00  0.3200E+02
     -4.404  0.0000E+00  0.3200E+02
     -4.220  0.0000E+00  0.3200E+02
     -4.037  0.0000E+00  0.3200E+02
     -3.853  0.0000E+00  0.3200E+02
     -3.669  0.0000E+00  0.3200E+02
     -3.486  0.0000E+00  0.3200E+02
     -3.302  0.0000E+00  0.3200E+02
     -3.119  0.0000E+00  0.3200E+02
     -2.935  0.0000E+00  0.3200E+02
     -2.751  0.0000E+00  0.3200E+02
     -2.568  0.8942E+01  0.3272E+02
     -2.384  0.1525E+02  0.3558E+02
     -2.200  0.4097E+02  0.3905E+02
     -2.017  0.1057E+02  0.4300E+02
     -1.833  0.0000E+00  0.4400E+02
     -1.650  0.0000E+00  0.4400E+02
     -1.466  0.0000E+00  0.4400E+02
     -1.282  0.0000E+00  0.4400E+02
     -1.099  0.0000E+00  0.4400E+02
     -0.915  0.0000E+00  0.4400E+02
     -0.732  0.0000E+00  0.4400E+02
     -0.548  0.0000E+00  0.4400E+02
     -0.364  0.0000E+00  0.4400E+02
     -0.181  0.2282E+02  0.4517E+02
      0.003  0.1325E+02  0.4860E+02
      0.187  0.1060E+02  0.5100E+02
      0.370  0.9718E+01  0.5237E+02
      0.554  0.6410E+00  0.5401E+02
      0.737  0.4882E+01  0.5593E+02
      0.921  0.1278E+02  0.5762E+02
      1.105  0.9742E+01  0.6044E+02
      1.288  0.7862E+01  0.6292E+02
      1.472  0.5848E+01  0.6402E+02
      1.655  0.3386E+02  0.6691E+02
      1.839  0.2316E+01  0.7004E+02
      2.023  0.1663E+02  0.7280E+02
      2.206  0.0000E+00  0.7600E+02
      2.390  0.0000E+00  0.7600E+02
      2.574  0.0000E+00  0.7600E+02
      2.757  0.0000E+00  0.7600E+02
      2.941  0.0000E+00  0.7600E+02
      3.124  0.0000E+00  0.7600E+02
      3.308  0.0000E+00  0.7600E+02
      3.492  0.0000E+00  0.7600E+02
      3.675  0.0000E+00  0.7600E+02
      3.859  0.0000E+00  0.7600E+02
      4.042  0.0000E+00  0.7600E+02
      4.226  0.0000E+00  0.7600E+02
      4.410  0.0000E+00  0.7600E+02
      4.593  0.0000E+00  0.7600E+02
      4.777  0.0000E+00  0.7600E+02
      4.961  0.0000E+00  0.7600E+02
      5.144  0.1973E+01  0.7611E+02
      5.328  0.3360E+01  0.7661E+02
      5.511  0.5476E+01  0.7756E+02
      5.695  0.5107E+01  0.7857E+02
      5.879  0.4205E+01  0.7949E+02
      6.062  0.7307E+00  0.8003E+02
      6.246  0.2318E+01  0.8031E+02
      6.430  0.1402E+02  0.8156E+02
      6.613  0.9508E+01  0.8391E+02
      6.797  0.1793E+02  0.8555E+02
      6.980  0.6093E+01  0.8750E+02
      7.164  0.9424E+01  0.8986E+02
      7.348  0.8948E+01  0.9167E+02
      7.531  0.0000E+00  0.9200E+02
      7.715  0.0000E+00  0.9200E+02
      7.898  0.0000E+00  0.9200E+02
      8.082  0.2577E+01  0.9211E+02
      8.266  0.1415E+02  0.9375E+02
      8.449  0.8597E+00  0.9410E+02
      8.633  0.2066E+02  0.9523E+02
      8.817  0.0000E+00  0.9600E+02
      9.000  0.0000E+00  0.9600E+02
      9.184  0.0000E+00  0.9600E+02
      9.367  0.0000E+00  0.9600E+02
      9.551  0.0000E+00  0.9600E+02
      9.735  0.0000E+00  0.9600E+02
      9.918  0.0000E+00  0.9600E+02
     10.102  0.0000E+00  0.9600E+02
     10.285  0.0000E+00  0.9600E+02
     10.469  0.0000E+00  0.9600E+02
     10.653  0.0000E+00  0.9600E+02
     10.836  0.0000E+00  0.9600E+02
     11.020  0.0000E+00  0.9600E+02
     11.204  0.0000E+00  0.9600E+02
