       N       E                     dE             d eps       ncg     rms          rms(c)
DAV:   1     0.505720627555E+03    0.50572E+03   -0.28578E+04   768   0.131E+03
DAV:   2    -0.935417001472E+01   -0.51507E+03   -0.49023E+03   912   0.309E+02
DAV:   3    -0.719581302275E+02   -0.62604E+02   -0.62184E+02  1080   0.980E+01
DAV:   4    -0.790193648730E+02   -0.70612E+01   -0.70398E+01  1408   0.310E+01
DAV:   5    -0.798622754597E+02   -0.84291E+00   -0.84277E+00  1144   0.741E+00    0.219E+01
RMM:   6    -0.775011123101E+02    0.23612E+01   -0.72719E+00   900   0.615E+00    0.148E+01
RMM:   7    -0.770758588067E+02    0.42525E+00   -0.21706E+00   970   0.378E+00    0.506E+00
RMM:   8    -0.770073062164E+02    0.68553E-01   -0.24768E-01  1022   0.149E+00    0.490E-01
RMM:   9    -0.770018148692E+02    0.54913E-02   -0.28556E-02  1174   0.519E-01    0.271E-01
RMM:  10    -0.770024234119E+02   -0.60854E-03   -0.84138E-03  1264   0.236E-01    0.118E-01
RMM:  11    -0.770027667506E+02   -0.34334E-03   -0.38990E-03  1236   0.138E-01    0.251E-02
RMM:  12    -0.770029246228E+02   -0.15787E-03   -0.18963E-03  1165   0.930E-02    0.158E-02
RMM:  13    -0.770030056204E+02   -0.80998E-04   -0.91873E-04   826   0.644E-02    0.131E-02
RMM:  14    -0.770030356496E+02   -0.30029E-04   -0.35873E-04   829   0.521E-02    0.100E-02
RMM:  15    -0.770030530650E+02   -0.17415E-04   -0.23679E-04   898   0.475E-02    0.388E-03
RMM:  16    -0.770030596626E+02   -0.65976E-05   -0.93810E-05   736   0.395E-02
   1 F= -.77003060E+02 E0= -.77003060E+02  d E =0.000000E+00
