 vasp.5.4.4.18Apr17-6-g9f103f2a35 (build Feb 28 2020 14:15:47) complex          
  
 executed on             LinuxIFC date 2022.08.06  21:55:59
 running on   64 total cores
 distrk:  each k-point on   64 cores,    1 groups
 distr:  one band on NCORES_PER_BAND=  16 cores,    4 groups


--------------------------------------------------------------------------------------------------------


 INCAR:
 POTCAR:    PAW P 26Mar2009                       
 POTCAR:    PAW S 27Mar2009                       
 POTCAR:    PAW Li_sv 10Sep2004                   
 POTCAR:    PAW P 26Mar2009                       
   VRHFIN =P : s2p3                                                             
   LEXCH  = CA                                                                  
   EATOM  =   176.5121 eV,   12.9733 Ry                                         
                                                                                
   TITEL  = PAW P 26Mar2009                                                     
   LULTRA =        F    use ultrasoft PP ?                                      
   IUNSCR =        1    unscreen: 0-lin 1-nonlin 2-no                           
   RPACOR =    1.500    partial core radius                                     
   POMASS =   30.974; ZVAL   =    5.000    mass and valenz                      
   RCORE  =    1.900    outmost cutoff radius                                   
   RWIGS  =    2.330; RWIGS  =    1.233    wigner-seitz radius (au A)           
   ENMAX  =  255.155; ENMIN  =  191.366 eV                                      
   ICORE  =        2    local potential                                         
   LCOR   =        T    correct aug charges                                     
   LPAW   =        T    paw PP                                                  
   EAUG   =  342.924                                                            
   DEXC   =    0.000                                                            
   RMAX   =    1.935    core radius for proj-oper                               
   RAUG   =    1.300    factor for augmentation sphere                          
   RDEP   =    1.931    radius for radial grids                                 
   RDEPT  =    1.780    core radius for aug-charge                              
                                                                                
   Atomic configuration                                                         
    6 entries                                                                   
     n  l   j            E        occ.                                          
     1  0  0.50     -2072.7761   2.0000                                         
     2  0  0.50      -172.9483   2.0000                                         
     2  1  1.50      -124.4644   6.0000                                         
     3  0  0.50       -14.0086   2.0000                                         
     3  1  0.50        -5.6037   3.0000                                         
     3  2  1.50        -6.8029   0.0000                                         
   Description                                                                  
     l       E           TYP  RCUT    TYP  RCUT                                 
     0    -14.0086211     23  1.900                                             
     0    -11.8189335     23  1.900                                             
     1     -5.6037292     23  1.900                                             
     1     -0.3527308     23  1.900                                             
     2     -6.8029130     23  1.900                                             
  local pseudopotential read in
  partial core-charges read in
  partial kinetic energy density read in
  atomic valenz-charges read in
  non local Contribution for L=           0  read in
    real space projection operators read in
  non local Contribution for L=           0  read in
    real space projection operators read in
  non local Contribution for L=           1  read in
    real space projection operators read in
  non local Contribution for L=           1  read in
    real space projection operators read in
    PAW grid and wavefunctions read in
 
   number of l-projection  operators is LMAX  =           4
   number of lm-projection operators is LMMAX =           8
 
 POTCAR:    PAW S 27Mar2009                       
   VRHFIN =S : s2p4                                                             
   LEXCH  = CA                                                                  
   EATOM  =   277.3745 eV,   20.3864 Ry                                         
                                                                                
   TITEL  = PAW S 27Mar2009                                                     
   LULTRA =        F    use ultrasoft PP ?                                      
   IUNSCR =        1    unscreen: 0-lin 1-nonlin 2-no                           
   RPACOR =    1.500    partial core radius                                     
   POMASS =   32.066; ZVAL   =    6.000    mass and valenz                      
   RCORE  =    1.900    outmost cutoff radius                                   
   RWIGS  =    2.200; RWIGS  =    1.164    wigner-seitz radius (au A)           
   ENMAX  =  258.602; ENMIN  =  193.952 eV                                      
   ICORE  =        2    local potential                                         
   LCOR   =        T    correct aug charges                                     
   LPAW   =        T    paw PP                                                  
   EAUG   =  335.092                                                            
   DEXC   =    0.000                                                            
   RMAX   =    1.942    core radius for proj-oper                               
   RAUG   =    1.300    factor for augmentation sphere                          
   RDEP   =    1.954    radius for radial grids                                 
   RDEPT  =    1.744    core radius for aug-charge                              
                                                                                
   Atomic configuration                                                         
    6 entries                                                                   
     n  l   j            E        occ.                                          
     1  0  0.50     -2393.1495   2.0000                                         
     2  0  0.50      -210.5411   2.0000                                         
     2  1  1.50      -156.4410   6.0000                                         
     3  0  0.50       -17.2664   2.0000                                         
     3  1  0.50        -7.1129   4.0000                                         
     3  2  1.50        -8.1635   0.0000                                         
   Description                                                                  
     l       E           TYP  RCUT    TYP  RCUT                                 
     0    -17.2664422     23  1.900                                             
     0    -15.8420823     23  1.900                                             
     1     -7.1129072     23  1.900                                             
     1     -2.8398274     23  1.900                                             
     2     -8.1634956     23  1.900                                             
  local pseudopotential read in
  partial core-charges read in
  partial kinetic energy density read in
  atomic valenz-charges read in
  non local Contribution for L=           0  read in
    real space projection operators read in
  non local Contribution for L=           0  read in
    real space projection operators read in
  non local Contribution for L=           1  read in
    real space projection operators read in
  non local Contribution for L=           1  read in
    real space projection operators read in
    PAW grid and wavefunctions read in
 
   number of l-projection  operators is LMAX  =           4
   number of lm-projection operators is LMMAX =           8
 
 POTCAR:    PAW Li_sv 10Sep2004                   
   VRHFIN =Li: 1s2s                                                             
   LEXCH  = CA                                                                  
   EATOM  =   199.5738 eV,   14.6683 Ry                                         
                                                                                
   TITEL  = PAW Li_sv 10Sep2004                                                 
   LULTRA =        F    use ultrasoft PP ?                                      
   IUNSCR =        0    unscreen: 0-lin 1-nonlin 2-no                           
   RPACOR =    0.000    partial core radius                                     
   POMASS =    7.010; ZVAL   =    3.000    mass and valenz                      
   RCORE  =    1.700    outmost cutoff radius                                   
   RWIGS  =    2.050; RWIGS  =    1.085    wigner-seitz radius (au A)           
   ENMAX  =  498.387; ENMIN  =  373.790 eV                                      
   ICORE  =        2    local potential                                         
   LCOR   =        T    correct aug charges                                     
   LPAW   =        T    paw PP                                                  
   EAUG   =  628.945                                                            
   RMAX   =    1.732    core radius for proj-oper                               
   RAUG   =    1.300    factor for augmentation sphere                          
   RDEP   =    1.728    radius for radial grids                                 
   RDEPT  =    1.329    core radius for aug-charge                              
                                                                                
   Atomic configuration                                                         
    4 entries                                                                   
     n  l   j            E        occ.                                          
     1  0  0.50       -51.0884   2.0000                                         
     2  0  0.50        -2.8766   1.0000                                         
     2  1  0.50        -2.8708   0.0000                                         
     3  2  1.50        -1.3606   0.0000                                         
   Description                                                                  
     l       E           TYP  RCUT    TYP  RCUT                                 
     0    -51.0884324     23  1.400                                             
     0     -2.8766458     23  1.700                                             
     1     -2.8708293     23  1.400                                             
     2     -1.3605826     23  1.400                                             
  local pseudopotential read in
  atomic valenz-charges read in
  non local Contribution for L=           0  read in
    real space projection operators read in
  non local Contribution for L=           0  read in
    real space projection operators read in
  non local Contribution for L=           1  read in
    real space projection operators read in
    PAW grid and wavefunctions read in
 
   number of l-projection  operators is LMAX  =           3
   number of lm-projection operators is LMMAX =           5
 
 Optimization of the real space projectors (new method)

 maximal supplied QI-value         = 19.84
 optimisation between [QCUT,QGAM] = [ 10.32, 20.83] = [ 29.81,121.55] Ry 
 Optimized for a Real-space Cutoff    1.39 Angstroem

   l    n(q)    QCUT    max X(q) W(low)/X(q) W(high)/X(q)  e(spline) 
   0      9    10.318   158.476    0.64E-04    0.80E-04    0.60E-07
   0      9    10.318   128.097    0.63E-04    0.79E-04    0.60E-07
   1      8    10.318    73.217    0.18E-03    0.19E-03    0.20E-06
   1      8    10.318    48.248    0.18E-03    0.19E-03    0.19E-06
 Optimization of the real space projectors (new method)

 maximal supplied QI-value         = 19.84
 optimisation between [QCUT,QGAM] = [ 10.32, 20.83] = [ 29.81,121.55] Ry 
 Optimized for a Real-space Cutoff    1.39 Angstroem

   l    n(q)    QCUT    max X(q) W(low)/X(q) W(high)/X(q)  e(spline) 
   0      9    10.318   180.455    0.73E-04    0.81E-04    0.62E-07
   0      9    10.318   157.733    0.72E-04    0.81E-04    0.62E-07
   1      8    10.318    66.201    0.18E-03    0.20E-03    0.20E-06
   1      8    10.318    49.617    0.18E-03    0.20E-03    0.20E-06
 Optimization of the real space projectors (new method)

 maximal supplied QI-value         = 22.11
 optimisation between [QCUT,QGAM] = [ 10.39, 20.78] = [ 30.24,120.96] Ry 
 Optimized for a Real-space Cutoff    1.20 Angstroem

   l    n(q)    QCUT    max X(q) W(low)/X(q) W(high)/X(q)  e(spline) 
   0      7    10.392    10.443    0.77E-04    0.41E-05    0.30E-07
   0      7    10.392     8.514    0.20E-03    0.36E-04    0.67E-07
   1      7    10.392     5.406    0.20E-03    0.20E-03    0.12E-06
  PAW P 26Mar2009                       :
 energy of atom  1       EATOM= -176.5121
 kinetic energy error for atom=    0.0021 (will be added to EATOM!!)
  PAW S 27Mar2009                       :
 energy of atom  2       EATOM= -277.3745
 kinetic energy error for atom=    0.0041 (will be added to EATOM!!)
  PAW Li_sv 10Sep2004                   :
 energy of atom  3       EATOM= -199.5738
 kinetic energy error for atom=    0.0564 (will be added to EATOM!!)
 
 
 POSCAR: Good luck                               
  positions in cartesian coordinates
  No initial velocities read in
 exchange correlation table for  LEXCH =        2
   RHO(1)=    0.500       N(1)  =     2000
   RHO(2)=  100.500       N(2)  =     4000
 


--------------------------------------------------------------------------------------------------------


 ion  position               nearest neighbor table
   1  0.000  0.331  0.298-   7 2.01   6 2.04   3 2.04   9 2.05
   2  0.500  0.669  0.798-   8 2.01   5 2.04   4 2.04  10 2.05
   3  0.218  0.186  0.178-   1 2.04  13 2.28  14 2.41  12 2.44
   4  0.282  0.814  0.678-   2 2.04  14 2.28  13 2.41  11 2.44
   5  0.718  0.814  0.678-   2 2.04  15 2.28  16 2.41  11 2.44
   6  0.782  0.186  0.178-   1 2.04  16 2.28  15 2.41  12 2.44
   7  0.000  0.646  0.225-   1 2.01  14 2.23  15 2.23
   8  0.500  0.354  0.725-   2 2.01  13 2.23  16 2.23
   9  0.000  0.272  0.632-   1 2.05  16 2.26  13 2.26  11 2.55
  10  0.500  0.728  0.132-   2 2.05  14 2.26  15 2.26  12 2.55
  11  0.000  0.659  0.772-   4 2.44   5 2.44   9 2.55
  12  0.500  0.341  0.272-   3 2.44   6 2.44  10 2.55
  13  0.252  0.180  0.802-   8 2.23   9 2.26   3 2.28   4 2.41
  14  0.248  0.820  0.302-   7 2.23  10 2.26   4 2.28   3 2.41
  15  0.752  0.820  0.302-   7 2.23  10 2.26   5 2.28   6 2.41
  16  0.748  0.180  0.802-   8 2.23   9 2.26   6 2.28   5 2.41
 
  LATTYP: Found a simple orthorhombic cell.
 ALAT       =     6.0320769347
 B/A-ratio  =     1.0315193043
 C/A-ratio  =     1.2710657222
  
  Lattice vectors:
  
 A1 = (   0.0000000000,   0.0000000000,  -6.0320769347)
 A2 = (   0.0000000000,  -6.2222038029,   0.0000000000)
 A3 = (  -7.6671662251,   0.0000000000,   0.0000000000)


Analysis of symmetry for initial positions (statically):
=====================================================================
 Subroutine PRICEL returns:
 Original cell was already a primitive cell.
 

 Routine SETGRP: Setting up the symmetry group for a 
 simple orthorhombic supercell.


 Subroutine GETGRP returns: Found  4 space group operations
 (whereof  2 operations were pure point group operations)
 out of a pool of  8 trial point group operations.


The static configuration has the point symmetry C_1h.
 The point group associated with its full space group is C_2v.


Analysis of symmetry for dynamics (positions and initial velocities):
=====================================================================
 Subroutine PRICEL returns:
 Original cell was already a primitive cell.
 

 Routine SETGRP: Setting up the symmetry group for a 
 simple orthorhombic supercell.


 Subroutine GETGRP returns: Found  4 space group operations
 (whereof  2 operations were pure point group operations)
 out of a pool of  8 trial point group operations.


The dynamic configuration has the point symmetry C_1h.
 The point group associated with its full space group is C_2v.


 Subroutine INISYM returns: Found  4 space group operations
 (whereof  2 operations are pure point group operations),
 and found     1 'primitive' translations

 
 
 KPOINTS: Automatic mesh                          

Automatic generation of k-mesh.
Space group operators:
 irot       det(A)        alpha          n_x          n_y          n_z        tau_x        tau_y        tau_z
    1     1.000000     0.000000     1.000000     0.000000     0.000000     0.000000     0.000000     0.000000
    2    -1.000000   180.000000     1.000000     0.000000     0.000000     0.000000     0.000000     0.000000
    3    -1.000000   179.999999     0.000000     1.000000     0.000000    -0.500000    -0.000000    -0.500000
    4     1.000000   180.000000     0.000000     0.000000     1.000000    -0.500000    -0.000000    -0.500000
 
 Subroutine IBZKPT returns following result:
 ===========================================
 
 Found      8 irreducible k-points:
 
 Following reciprocal coordinates:
            Coordinates               Weight
  0.000000  0.000000  0.000000      1.000000
  0.333333  0.000000  0.000000      2.000000
  0.000000  0.333333  0.000000      2.000000
  0.333333  0.333333  0.000000      4.000000
  0.000000  0.000000  0.333333      2.000000
  0.333333  0.000000  0.333333      4.000000
  0.000000  0.333333  0.333333      4.000000
  0.333333  0.333333  0.333333      8.000000
 
 Following cartesian coordinates:
            Coordinates               Weight
  0.000000  0.000000  0.000000      1.000000
  0.043475  0.000000  0.000000      2.000000
  0.000000  0.053572  0.000000      2.000000
  0.043475  0.053572  0.000000      4.000000
  0.000000  0.000000  0.055260      2.000000
  0.043475  0.000000  0.055260      4.000000
  0.000000  0.053572  0.055260      4.000000
  0.043475  0.053572  0.055260      8.000000
 
 TETIRR: Found     70 inequivalent tetrahedra from      162


--------------------------------------------------------------------------------------------------------




 Dimension of arrays:
   k-points           NKPTS =      8   k-points in BZ     NKDIM =      8   number of bands    NBANDS=     48
   number of dos      NEDOS =    301   number of ions     NIONS =     16
   non local maximal  LDIM  =      4   non local SUM 2l+1 LMDIM =      8
   total plane-waves  NPLWV =  90720
   max r-space proj   IRMAX =   3578   max aug-charges    IRDMAX=  10130
   dimension x,y,z NGX =    54 NGY =   42 NGZ =   40
   dimension x,y,z NGXF=   108 NGYF=   84 NGZF=   80
   support grid    NGXF=   108 NGYF=   84 NGZF=   80
   ions per type =               2   8   6
   NGX,Y,Z   is equivalent  to a cutoff of  11.71, 11.22, 11.02 a.u.
   NGXF,Y,Z  is equivalent  to a cutoff of  23.42, 22.44, 22.05 a.u.

 SYSTEM =  unknown system                          
 POSCAR =  Good luck                               

 Startparameter for this run:
   NWRITE =      2    write-flag & timer
   PREC   = accura    normal or accurate (medium, high low for compatibility)
   ISTART =      0    job   : 0-new  1-cont  2-samecut
   ICHARG =      2    charge: 1-file 2-atom 10-const
   ISPIN  =      1    spin polarized calculation?
   LNONCOLLINEAR =      F non collinear calculations
   LSORBIT =      F    spin-orbit coupling
   INIWAV =      1    electr: 0-lowe 1-rand  2-diag
   LASPH  =      F    aspherical Exc in radial PAW
   METAGGA=      F    non-selfconsistent MetaGGA calc.

 Electronic Relaxation 1
   ENCUT  =  420.0 eV  30.87 Ry    5.56 a.u.  12.81 10.40 10.08*2*pi/ulx,y,z
   ENINI  =  420.0     initial cutoff
   ENAUG  =  628.9 eV  augmentation charge cutoff
   NELM   =    100;   NELMIN=  2; NELMDL= -5     # of ELM steps 
   EDIFF  = 0.2E-04   stopping-criterion for ELM
   LREAL  =      T    real-space projection
   NLSPLINE    = F    spline interpolate recip. space projectors
   LCOMPAT=      F    compatible to vasp.4.4
   GGA_COMPAT  = T    GGA compatible to vasp.4.4-vasp.4.6
   LMAXPAW     = -100 max onsite density
   LMAXMIX     =    2 max onsite mixed and CHGCAR
   VOSKOWN=      0    Vosko Wilk Nusair interpolation
   ROPT   =   -0.00025  -0.00025  -0.00025
 Ionic relaxation
   EDIFFG = 0.2E-03   stopping-criterion for IOM
   NSW    =      0    number of steps for IOM
   NBLOCK =      1;   KBLOCK =      1    inner block; outer block 
   IBRION =     -1    ionic relax: 0-MD 1-quasi-New 2-CG
   NFREE  =      1    steps in history (QN), initial steepest desc. (CG)
   ISIF   =      7    stress and relaxation
   IWAVPR =     10    prediction:  0-non 1-charg 2-wave 3-comb
   ISYM   =      2    0-nonsym 1-usesym 2-fastsym
   LCORR  =      T    Harris-Foulkes like correction to forces

   POTIM  = 0.5000    time-step for ionic-motion
   TEIN   =    0.0    initial temperature
   TEBEG  =    0.0;   TEEND  =   0.0 temperature during run
   SMASS  =  -3.00    Nose mass-parameter (am)
   estimated Nose-frequenzy (Omega)   =  0.10E-29 period in steps =****** mass=  -0.134E-26a.u.
   SCALEE = 1.0000    scale energy and forces
   NPACO  =    256;   APACO  = 16.0  distance and # of slots for P.C.
   PSTRESS=    0.0 pullay stress

  Mass of Ions in am
   POMASS =  30.97 32.07  7.01
  Ionic Valenz
   ZVAL   =   5.00  6.00  3.00
  Atomic Wigner-Seitz radii
   RWIGS  =  -1.00 -1.00 -1.00
  virtual crystal weights 
   VCA    =   1.00  1.00  1.00
   NELECT =      76.0000    total number of electrons
   NUPDOWN=      -1.0000    fix difference up-down

 DOS related values:
   EMIN   =  10.00;   EMAX   =-10.00  energy-range for DOS
   EFERMI =   0.00
   ISMEAR =    -5;   SIGMA  =   0.20  broadening in eV -4-tet -1-fermi 0-gaus

 Electronic relaxation 2 (details)
   IALGO  =     68    algorithm
   LDIAG  =      T    sub-space diagonalisation (order eigenvalues)
   LSUBROT=      F    optimize rotation matrix (better conditioning)
   TURBO    =      0    0=normal 1=particle mesh
   IRESTART =      0    0=no restart 2=restart with 2 vectors
   NREBOOT  =      0    no. of reboots
   NMIN     =      0    reboot dimension
   EREF     =   0.00    reference energy to select bands
   IMIX   =      4    mixing-type and parameters
     AMIX     =   0.40;   BMIX     =  1.00
     AMIX_MAG =   1.60;   BMIX_MAG =  1.00
     AMIN     =   0.10
     WC   =   100.;   INIMIX=   1;  MIXPRE=   1;  MAXMIX= -45

 Intra band minimization:
   WEIMIN = 0.0000     energy-eigenvalue tresh-hold
   EBREAK =  0.10E-06  absolut break condition
   DEPER  =   0.30     relativ break condition  

   TIME   =   0.40     timestep for ELM

  volume/ion in A,a.u.               =      17.99       121.37
  Fermi-wavevector in a.u.,A,eV,Ry     =   1.050342  1.984858 15.010194  1.103218
  Thomas-Fermi vector in A             =   2.185341
 
 Write flags
   LWAVE        =      F    write WAVECAR
   LDOWNSAMPLE  =      F    k-point downsampling of WAVECAR
   LCHARG       =      F    write CHGCAR
   LVTOT        =      F    write LOCPOT, total local potential
   LVHAR        =      F    write LOCPOT, Hartree potential only
   LELF         =      F    write electronic localiz. function (ELF)
   LORBIT       =      0    0 simple, 1 ext, 2 COOP (PROOUT), +10 PAW based schemes


 Dipole corrections
   LMONO  =      F    monopole corrections only (constant potential shift)
   LDIPOL =      F    correct potential (dipole corrections)
   IDIPOL =      0    1-x, 2-y, 3-z, 4-all directions 
   EPSILON=  1.0000000 bulk dielectric constant

 Exchange correlation treatment:
   GGA     =    --    GGA type
   LEXCH   =     2    internal setting for exchange type
   VOSKOWN=      0    Vosko Wilk Nusair interpolation
   LHFCALC =     F    Hartree Fock is set to
   LHFONE  =     F    Hartree Fock one center treatment
   AEXX    =    0.0000 exact exchange contribution

 Linear response parameters
   LEPSILON=     F    determine dielectric tensor
   LRPA    =     F    only Hartree local field effects (RPA)
   LNABLA  =     F    use nabla operator in PAW spheres
   LVEL    =     F    velocity operator in full k-point grid
   LINTERFAST=   F  fast interpolation
   KINTER  =     0    interpolate to denser k-point grid
   CSHIFT  =0.1000    complex shift for real part using Kramers Kronig
   OMEGAMAX=  -1.0    maximum frequency
   DEG_THRESHOLD= 0.2000000E-02 threshold for treating states as degnerate
   RTIME   =   -0.100 relaxation time in fs
  (WPLASMAI=    0.000 imaginary part of plasma frequency in eV, 0.658/RTIME)
   DFIELD  = 0.0000000 0.0000000 0.0000000 field for delta impulse in time
 
 Orbital magnetization related:
   ORBITALMAG=     F  switch on orbital magnetization
   LCHIMAG   =     F  perturbation theory with respect to B field
   DQ        =  0.001000  dq finite difference perturbation B field
   LLRAUG    =     F  two centre corrections for induced B field



--------------------------------------------------------------------------------------------------------


 Static calculation
 charge density and potential will be updated during run
 non-spin polarized calculation
 RMM-DIIS sequential band-by-band and
  variant of blocked Davidson during initial phase
 perform sub-space diagonalisation
    before iterative eigenvector-optimisation
 modified Broyden-mixing scheme, WC =      100.0
 initial mixing is a Kerker type mixing with AMIX =  0.4000 and BMIX =      1.0000
 Hartree-type preconditioning will be used
 using additional bands           10
 real space projection scheme for non local part
 use partial core corrections
 calculate Harris-corrections to forces 
   (improved forces if not selfconsistent)
 use of overlap-Matrix (Vanderbilt PP)
 Fermi weights with tetrahedron method with Bloechl corrections


--------------------------------------------------------------------------------------------------------


  energy-cutoff  :      420.00
  volume of cell :      287.77
      direct lattice vectors                 reciprocal lattice vectors
     7.667166225  0.000000000  0.000000000     0.130426284  0.000000000  0.000000000
     0.000000000  6.222203803  0.000000000     0.000000000  0.160714761  0.000000000
     0.000000000  0.000000000  6.032076935     0.000000000  0.000000000  0.165780379

  length of vectors
     7.667166225  6.222203803  6.032076935     0.130426284  0.160714761  0.165780379


 
 k-points in units of 2pi/SCALE and weight: Automatic mesh                          
   0.00000000  0.00000000  0.00000000       0.037
   0.04347543  0.00000000  0.00000000       0.074
   0.00000000  0.05357159  0.00000000       0.074
   0.04347543  0.05357159  0.00000000       0.148
   0.00000000  0.00000000  0.05526013       0.074
   0.04347543  0.00000000  0.05526013       0.148
   0.00000000  0.05357159  0.05526013       0.148
   0.04347543  0.05357159  0.05526013       0.296
 
 k-points in reciprocal lattice and weights: Automatic mesh                          
   0.00000000  0.00000000  0.00000000       0.037
   0.33333333  0.00000000  0.00000000       0.074
   0.00000000  0.33333333  0.00000000       0.074
   0.33333333  0.33333333  0.00000000       0.148
   0.00000000  0.00000000  0.33333333       0.074
   0.33333333  0.00000000  0.33333333       0.148
   0.00000000  0.33333333  0.33333333       0.148
   0.33333333  0.33333333  0.33333333       0.296
 
 position of ions in fractional coordinates (direct lattice) 
   0.00000000  0.33087992  0.29822498
   0.50000000  0.66912008  0.79822498
   0.21818844  0.18589048  0.17750938
   0.28181156  0.81410952  0.67750938
   0.71818844  0.81410952  0.67750938
   0.78181156  0.18589048  0.17750938
   0.00000000  0.64627368  0.22460790
   0.50000000  0.35372632  0.72460790
   0.00000000  0.27197485  0.63218855
   0.50000000  0.72802515  0.13218855
   0.00000000  0.65857407  0.77224511
   0.50000000  0.34142593  0.27224511
   0.25244900  0.17991949  0.80225911
   0.24755100  0.82008051  0.30225911
   0.75244900  0.82008051  0.30225911
   0.74755100  0.17991949  0.80225911
 
 position of ions in cartesian coordinates  (Angst):
   0.00000000  2.05880231  1.79891601
   3.83358311  4.16340150  4.81495448
   1.67288706  1.15664843  1.07075023
   2.16069605  5.06555537  4.08678870
   5.50647017  5.06555537  4.08678870
   5.99427916  1.15664843  1.07075023
   0.00000000  4.02124658  1.35485215
   3.83358311  2.20095722  4.37089061
   0.00000000  1.69228292  3.81340996
   3.83358311  4.52992089  0.79737149
   0.00000000  4.09778206  4.65824190
   3.83358311  2.12442174  1.64220343
   1.93556847  1.11949575  4.83928869
   1.89801464  5.10270806  1.82325022
   5.76915158  5.10270806  1.82325022
   5.73159776  1.11949575  4.83928869
 


--------------------------------------------------------------------------------------------------------


 k-point  1 :   0.0000 0.0000 0.0000  plane waves:    5645
 k-point  2 :   0.3333 0.0000 0.0000  plane waves:    5620
 k-point  3 :   0.0000 0.3333 0.0000  plane waves:    5611
 k-point  4 :   0.3333 0.3333 0.0000  plane waves:    5611
 k-point  5 :   0.0000 0.0000 0.3333  plane waves:    5632
 k-point  6 :   0.3333 0.0000 0.3333  plane waves:    5629
 k-point  7 :   0.0000 0.3333 0.3333  plane waves:    5628
 k-point  8 :   0.3333 0.3333 0.3333  plane waves:    5625

 maximum and minimum number of plane-waves per node :       374      335

 maximum number of plane-waves:      5645
 maximum index in each direction: 
   IXMAX=   12   IYMAX=   10   IZMAX=   10
   IXMIN=  -13   IYMIN=  -10   IZMIN=  -10


 real space projection operators:
  total allocation   :       2655.42 KBytes
  max/ min on nodes  :        203.16        143.69


 parallel 3D FFT for wavefunctions:
    minimum data exchange during FFTs selected (reduces bandwidth)
 parallel 3D FFT for charge:
    minimum data exchange during FFTs selected (reduces bandwidth)


 total amount of memory used by VASP MPI-rank0    33581. kBytes
=======================================================================

   base      :      30000. kBytes
   nonlr-proj:       1216. kBytes
   fftplans  :        656. kBytes
   grid      :       1147. kBytes
   one-center:          3. kBytes
   wavefun   :        559. kBytes
 
     INWAV:  cpu time    0.0000: real time    0.0000
 Broyden mixing: mesh for mixing (old mesh)
   NGX = 25   NGY = 21   NGZ = 21
  (NGX  =108   NGY  = 84   NGZ  = 80)
  gives a total of  11025 points

 initial charge density was supplied:
 charge density of overlapping atoms calculated
 number of electron      76.0000000 magnetization 
 keeping initial charge density in first step


--------------------------------------------------------------------------------------------------------


 Maximum index for non-local projection operator          434
 Maximum index for augmentation-charges          529 (set IRDMAX)


--------------------------------------------------------------------------------------------------------


 First call to EWALD:  gamma=   0.268
 Maximum number of real-space cells 2x 3x 3
 Maximum number of reciprocal cells 3x 3x 3

    FEWALD:  cpu time    0.0017: real time    0.0017


--------------------------------------- Iteration      1(   1)  ---------------------------------------


    POTLOK:  cpu time    0.0048: real time    0.0076
    SETDIJ:  cpu time    0.0032: real time    0.0038
     EDDAV:  cpu time    0.2020: real time    0.2089
 BZINTS: Fermi energy: 15.073954; 76.000000 electrons
         Band energy:-117.709490;  BLOECHL correction: -0.083893
       DOS:  cpu time    0.0045: real time    0.0048
    --------------------------------------------
      LOOP:  cpu time    0.2145: real time    0.2250

 eigenvalue-minimisations  :   768
 total energy-change (2. order) : 0.5057206E+03  (-0.2857843E+04)
 number of electron      76.0000000 magnetization 
 augmentation part       76.0000000 magnetization 

 Free energy of the ion-electron system (eV)
  ---------------------------------------------------
  alpha Z        PSCENC =        68.57190477
  Ewald energy   TEWEN  =     -2729.25415140
  -Hartree energ DENC   =      -619.98636785
  -exchange      EXHF   =         0.00000000
  -V(xc)+E(xc)   XCENC  =       181.90862915
  PAW double counting   =      2494.22442938    -2541.12215007
  entropy T*S    EENTRO =         0.00000000
  eigenvalues    EBANDS =      -117.70949021
  atomic energy  EATOM  =      3769.08782378
  Solvation  Ediel_sol  =         0.00000000
  ---------------------------------------------------
  free energy    TOTEN  =       505.72062756 eV

  energy without entropy =      505.72062756  energy(sigma->0) =      505.72062756


--------------------------------------------------------------------------------------------------------




--------------------------------------- Iteration      1(   2)  ---------------------------------------


     EDDAV:  cpu time    0.1997: real time    0.2002
 BZINTS: Fermi energy:  4.226922; 76.000000 electrons
         Band energy:-632.784288;  BLOECHL correction:  0.000000
       DOS:  cpu time    0.0008: real time    0.0008
    --------------------------------------------
      LOOP:  cpu time    0.2005: real time    0.2011

 eigenvalue-minimisations  :   912
 total energy-change (2. order) :-0.5150748E+03  (-0.4902291E+03)
 number of electron      76.0000000 magnetization 
 augmentation part       76.0000000 magnetization 

 Free energy of the ion-electron system (eV)
  ---------------------------------------------------
  alpha Z        PSCENC =        68.57190477
  Ewald energy   TEWEN  =     -2729.25415140
  -Hartree energ DENC   =      -619.98636785
  -exchange      EXHF   =         0.00000000
  -V(xc)+E(xc)   XCENC  =       181.90862915
  PAW double counting   =      2494.22442938    -2541.12215007
  entropy T*S    EENTRO =         0.00000000
  eigenvalues    EBANDS =      -632.78428778
  atomic energy  EATOM  =      3769.08782378
  Solvation  Ediel_sol  =         0.00000000
  ---------------------------------------------------
  free energy    TOTEN  =        -9.35417001 eV

  energy without entropy =       -9.35417001  energy(sigma->0) =       -9.35417001


--------------------------------------------------------------------------------------------------------




--------------------------------------- Iteration      1(   3)  ---------------------------------------


     EDDAV:  cpu time    0.2246: real time    0.2246
 BZINTS: Fermi energy:  1.602097; 76.000000 electrons
         Band energy:-695.388248;  BLOECHL correction:  0.000000
       DOS:  cpu time    0.0007: real time    0.0007
    --------------------------------------------
      LOOP:  cpu time    0.2253: real time    0.2253

 eigenvalue-minimisations  :  1080
 total energy-change (2. order) :-0.6260396E+02  (-0.6218431E+02)
 number of electron      76.0000000 magnetization 
 augmentation part       76.0000000 magnetization 

 Free energy of the ion-electron system (eV)
  ---------------------------------------------------
  alpha Z        PSCENC =        68.57190477
  Ewald energy   TEWEN  =     -2729.25415140
  -Hartree energ DENC   =      -619.98636785
  -exchange      EXHF   =         0.00000000
  -V(xc)+E(xc)   XCENC  =       181.90862915
  PAW double counting   =      2494.22442938    -2541.12215007
  entropy T*S    EENTRO =         0.00000000
  eigenvalues    EBANDS =      -695.38824799
  atomic energy  EATOM  =      3769.08782378
  Solvation  Ediel_sol  =         0.00000000
  ---------------------------------------------------
  free energy    TOTEN  =       -71.95813023 eV

  energy without entropy =      -71.95813023  energy(sigma->0) =      -71.95813023


--------------------------------------------------------------------------------------------------------




--------------------------------------- Iteration      1(   4)  ---------------------------------------


     EDDAV:  cpu time    0.2748: real time    0.2748
 BZINTS: Fermi energy:  1.537366; 76.000000 electrons
         Band energy:-702.449483;  BLOECHL correction:  0.000000
       DOS:  cpu time    0.0008: real time    0.0008
    --------------------------------------------
      LOOP:  cpu time    0.2756: real time    0.2756

 eigenvalue-minimisations  :  1408
 total energy-change (2. order) :-0.7061235E+01  (-0.7039751E+01)
 number of electron      76.0000000 magnetization 
 augmentation part       76.0000000 magnetization 

 Free energy of the ion-electron system (eV)
  ---------------------------------------------------
  alpha Z        PSCENC =        68.57190477
  Ewald energy   TEWEN  =     -2729.25415140
  -Hartree energ DENC   =      -619.98636785
  -exchange      EXHF   =         0.00000000
  -V(xc)+E(xc)   XCENC  =       181.90862915
  PAW double counting   =      2494.22442938    -2541.12215007
  entropy T*S    EENTRO =         0.00000000
  eigenvalues    EBANDS =      -702.44948264
  atomic energy  EATOM  =      3769.08782378
  Solvation  Ediel_sol  =         0.00000000
  ---------------------------------------------------
  free energy    TOTEN  =       -79.01936487 eV

  energy without entropy =      -79.01936487  energy(sigma->0) =      -79.01936487


--------------------------------------------------------------------------------------------------------




--------------------------------------- Iteration      1(   5)  ---------------------------------------


     EDDAV:  cpu time    0.2324: real time    0.2324
 BZINTS: Fermi energy:  1.606258; 76.000000 electrons
         Band energy:-703.292393;  BLOECHL correction:  0.000000
       DOS:  cpu time    0.0008: real time    0.0008
    CHARGE:  cpu time    0.0157: real time    0.0158
    MIXING:  cpu time    0.0012: real time    0.0019
    --------------------------------------------
      LOOP:  cpu time    0.2502: real time    0.2509

 eigenvalue-minimisations  :  1144
 total energy-change (2. order) :-0.8429106E+00  (-0.8427651E+00)
 number of electron      76.0000017 magnetization 
 augmentation part       -1.8560894 magnetization 

 Broyden mixing:
  rms(total) = 0.21931E+01    rms(broyden)= 0.21927E+01
  rms(prec ) = 0.24685E+01
  weight for this iteration     100.00

 Free energy of the ion-electron system (eV)
  ---------------------------------------------------
  alpha Z        PSCENC =        68.57190477
  Ewald energy   TEWEN  =     -2729.25415140
  -Hartree energ DENC   =      -619.98636785
  -exchange      EXHF   =         0.00000000
  -V(xc)+E(xc)   XCENC  =       181.90862915
  PAW double counting   =      2494.22442938    -2541.12215007
  entropy T*S    EENTRO =         0.00000000
  eigenvalues    EBANDS =      -703.29239322
  atomic energy  EATOM  =      3769.08782378
  Solvation  Ediel_sol  =         0.00000000
  ---------------------------------------------------
  free energy    TOTEN  =       -79.86227546 eV

  energy without entropy =      -79.86227546  energy(sigma->0) =      -79.86227546


--------------------------------------------------------------------------------------------------------




--------------------------------------- Iteration      1(   6)  ---------------------------------------


    POTLOK:  cpu time    0.0032: real time    0.0035
    SETDIJ:  cpu time    0.0009: real time    0.0009
    EDDIAG:  cpu time    0.0503: real time    0.0512
  RMM-DIIS:  cpu time    0.0803: real time    0.0803
    ORTHCH:  cpu time    0.0068: real time    0.0068
 BZINTS: Fermi energy:  2.014966; 76.000000 electrons
         Band energy:-685.789210;  BLOECHL correction:  0.000000
       DOS:  cpu time    0.0008: real time    0.0008
    CHARGE:  cpu time    0.0147: real time    0.0147
    MIXING:  cpu time    0.0005: real time    0.0005
    --------------------------------------------
      LOOP:  cpu time    0.1575: real time    0.1587

 eigenvalue-minimisations  :   900
 total energy-change (2. order) : 0.2361163E+01  (-0.7271862E+00)
 number of electron      76.0000018 magnetization 
 augmentation part       -1.7979016 magnetization 

 Broyden mixing:
  rms(total) = 0.14807E+01    rms(broyden)= 0.14807E+01
  rms(prec ) = 0.15449E+01
  weight for this iteration     100.00

 eigenvalues of (default mixing * dielectric matrix)
  average eigenvalue GAMMA=   2.3604
  2.3604

 Free energy of the ion-electron system (eV)
  ---------------------------------------------------
  alpha Z        PSCENC =        68.57190477
  Ewald energy   TEWEN  =     -2729.25415140
  -Hartree energ DENC   =      -635.26144975
  -exchange      EXHF   =         0.00000000
  -V(xc)+E(xc)   XCENC  =       183.72082704
  PAW double counting   =      3974.72741652    -4023.30427334
  entropy T*S    EENTRO =         0.00000000
  eigenvalues    EBANDS =      -685.78920993
  atomic energy  EATOM  =      3769.08782378
  Solvation  Ediel_sol  =         0.00000000
  ---------------------------------------------------
  free energy    TOTEN  =       -77.50111231 eV

  energy without entropy =      -77.50111231  energy(sigma->0) =      -77.50111231


--------------------------------------------------------------------------------------------------------




--------------------------------------- Iteration      1(   7)  ---------------------------------------


    POTLOK:  cpu time    0.0029: real time    0.0032
    SETDIJ:  cpu time    0.0010: real time    0.0010
    EDDIAG:  cpu time    0.0500: real time    0.0500
  RMM-DIIS:  cpu time    0.0870: real time    0.0870
    ORTHCH:  cpu time    0.0067: real time    0.0067
 BZINTS: Fermi energy:  2.273766; 76.000000 electrons
         Band energy:-670.789291;  BLOECHL correction:  0.000000
       DOS:  cpu time    0.0007: real time    0.0007
    CHARGE:  cpu time    0.0147: real time    0.0147
    MIXING:  cpu time    0.0005: real time    0.0005
    --------------------------------------------
      LOOP:  cpu time    0.1634: real time    0.1637

 eigenvalue-minimisations  :   970
 total energy-change (2. order) : 0.4252535E+00  (-0.2170553E+00)
 number of electron      76.0000018 magnetization 
 augmentation part       -1.7569634 magnetization 

 Broyden mixing:
  rms(total) = 0.50577E+00    rms(broyden)= 0.50577E+00
  rms(prec ) = 0.52963E+00
  weight for this iteration     100.00

 eigenvalues of (default mixing * dielectric matrix)
  average eigenvalue GAMMA=   1.9183
  1.3910  2.4455

 Free energy of the ion-electron system (eV)
  ---------------------------------------------------
  alpha Z        PSCENC =        68.57190477
  Ewald energy   TEWEN  =     -2729.25415140
  -Hartree energ DENC   =      -650.16156840
  -exchange      EXHF   =         0.00000000
  -V(xc)+E(xc)   XCENC  =       185.39994554
  PAW double counting   =      6487.30961172    -6537.24013338
  entropy T*S    EENTRO =         0.00000000
  eigenvalues    EBANDS =      -670.78929144
  atomic energy  EATOM  =      3769.08782378
  Solvation  Ediel_sol  =         0.00000000
  ---------------------------------------------------
  free energy    TOTEN  =       -77.07585881 eV

  energy without entropy =      -77.07585881  energy(sigma->0) =      -77.07585881


--------------------------------------------------------------------------------------------------------




--------------------------------------- Iteration      1(   8)  ---------------------------------------


    POTLOK:  cpu time    0.0031: real time    0.0034
    SETDIJ:  cpu time    0.0010: real time    0.0010
    EDDIAG:  cpu time    0.0491: real time    0.0491
  RMM-DIIS:  cpu time    0.0911: real time    0.0912
    ORTHCH:  cpu time    0.0067: real time    0.0067
 BZINTS: Fermi energy:  2.249289; 76.000000 electrons
         Band energy:-668.516197;  BLOECHL correction:  0.000000
       DOS:  cpu time    0.0008: real time    0.0008
    CHARGE:  cpu time    0.0146: real time    0.0146
    MIXING:  cpu time    0.0005: real time    0.0005
    --------------------------------------------
      LOOP:  cpu time    0.1670: real time    0.1674

 eigenvalue-minimisations  :  1022
 total energy-change (2. order) : 0.6855259E-01  (-0.2476782E-01)
 number of electron      76.0000017 magnetization 
 augmentation part       -1.7721758 magnetization 

 Broyden mixing:
  rms(total) = 0.49012E-01    rms(broyden)= 0.48987E-01
  rms(prec ) = 0.63324E-01
  weight for this iteration     100.00

 eigenvalues of (default mixing * dielectric matrix)
  average eigenvalue GAMMA=   1.6490
  1.0757  2.3206  1.5508

 Free energy of the ion-electron system (eV)
  ---------------------------------------------------
  alpha Z        PSCENC =        68.57190477
  Ewald energy   TEWEN  =     -2729.25415140
  -Hartree energ DENC   =      -652.49117009
  -exchange      EXHF   =         0.00000000
  -V(xc)+E(xc)   XCENC  =       185.68781328
  PAW double counting   =      7567.37843448    -7617.47176443
  entropy T*S    EENTRO =         0.00000000
  eigenvalues    EBANDS =      -668.51619661
  atomic energy  EATOM  =      3769.08782378
  Solvation  Ediel_sol  =         0.00000000
  ---------------------------------------------------
  free energy    TOTEN  =       -77.00730622 eV

  energy without entropy =      -77.00730622  energy(sigma->0) =      -77.00730622


--------------------------------------------------------------------------------------------------------




--------------------------------------- Iteration      1(   9)  ---------------------------------------


    POTLOK:  cpu time    0.0030: real time    0.0033
    SETDIJ:  cpu time    0.0010: real time    0.0010
    EDDIAG:  cpu time    0.0497: real time    0.0497
  RMM-DIIS:  cpu time    0.1027: real time    0.1027
    ORTHCH:  cpu time    0.0068: real time    0.0068
 BZINTS: Fermi energy:  2.248685; 76.000000 electrons
         Band energy:-669.471229;  BLOECHL correction:  0.000000
       DOS:  cpu time    0.0007: real time    0.0007
    CHARGE:  cpu time    0.0146: real time    0.0146
    MIXING:  cpu time    0.0005: real time    0.0005
    --------------------------------------------
      LOOP:  cpu time    0.1789: real time    0.1792

 eigenvalue-minimisations  :  1174
 total energy-change (2. order) : 0.5491347E-02  (-0.2855582E-02)
 number of electron      76.0000017 magnetization 
 augmentation part       -1.7867507 magnetization 

 Broyden mixing:
  rms(total) = 0.27053E-01    rms(broyden)= 0.27037E-01
  rms(prec ) = 0.28973E-01
  weight for this iteration     100.00

 eigenvalues of (default mixing * dielectric matrix)
  average eigenvalue GAMMA=   1.8044
  2.3168  2.3168  1.2921  1.2921

 Free energy of the ion-electron system (eV)
  ---------------------------------------------------
  alpha Z        PSCENC =        68.57190477
  Ewald energy   TEWEN  =     -2729.25415140
  -Hartree energ DENC   =      -651.54640929
  -exchange      EXHF   =         0.00000000
  -V(xc)+E(xc)   XCENC  =       185.62955881
  PAW double counting   =      7463.30094260    -7513.32025506
  entropy T*S    EENTRO =         0.00000000
  eigenvalues    EBANDS =      -669.47122908
  atomic energy  EATOM  =      3769.08782378
  Solvation  Ediel_sol  =         0.00000000
  ---------------------------------------------------
  free energy    TOTEN  =       -77.00181487 eV

  energy without entropy =      -77.00181487  energy(sigma->0) =      -77.00181487


--------------------------------------------------------------------------------------------------------




--------------------------------------- Iteration      1(  10)  ---------------------------------------


    POTLOK:  cpu time    0.0029: real time    0.0032
    SETDIJ:  cpu time    0.0010: real time    0.0010
    EDDIAG:  cpu time    0.0495: real time    0.0495
  RMM-DIIS:  cpu time    0.1111: real time    0.1111
    ORTHCH:  cpu time    0.0067: real time    0.0067
 BZINTS: Fermi energy:  2.250513; 76.000000 electrons
         Band energy:-669.451019;  BLOECHL correction:  0.000000
       DOS:  cpu time    0.0008: real time    0.0008
    CHARGE:  cpu time    0.0145: real time    0.0145
    MIXING:  cpu time    0.0005: real time    0.0005
    --------------------------------------------
      LOOP:  cpu time    0.1870: real time    0.1873

 eigenvalue-minimisations  :  1264
 total energy-change (2. order) :-0.6085427E-03  (-0.8413808E-03)
 number of electron      76.0000017 magnetization 
 augmentation part       -1.7924622 magnetization 

 Broyden mixing:
  rms(total) = 0.11814E-01    rms(broyden)= 0.11795E-01
  rms(prec ) = 0.13353E-01
  weight for this iteration     100.00

 eigenvalues of (default mixing * dielectric matrix)
  average eigenvalue GAMMA=   1.8177
  2.4775  2.4775  1.9147  0.9481  1.2705

 Free energy of the ion-electron system (eV)
  ---------------------------------------------------
  alpha Z        PSCENC =        68.57190477
  Ewald energy   TEWEN  =     -2729.25415140
  -Hartree energ DENC   =      -651.58861600
  -exchange      EXHF   =         0.00000000
  -V(xc)+E(xc)   XCENC  =       185.62932005
  PAW double counting   =      7423.41073376    -7473.40841906
  entropy T*S    EENTRO =         0.00000000
  eigenvalues    EBANDS =      -669.45101931
  atomic energy  EATOM  =      3769.08782378
  Solvation  Ediel_sol  =         0.00000000
  ---------------------------------------------------
  free energy    TOTEN  =       -77.00242341 eV

  energy without entropy =      -77.00242341  energy(sigma->0) =      -77.00242341


--------------------------------------------------------------------------------------------------------




--------------------------------------- Iteration      1(  11)  ---------------------------------------


    POTLOK:  cpu time    0.0030: real time    0.0033
    SETDIJ:  cpu time    0.0010: real time    0.0010
    EDDIAG:  cpu time    0.0525: real time    0.0525
  RMM-DIIS:  cpu time    0.1119: real time    0.1119
    ORTHCH:  cpu time    0.0067: real time    0.0067
 BZINTS: Fermi energy:  2.253044; 76.000000 electrons
         Band energy:-669.149911;  BLOECHL correction:  0.000000
       DOS:  cpu time    0.0008: real time    0.0008
    CHARGE:  cpu time    0.0147: real time    0.0147
    MIXING:  cpu time    0.0005: real time    0.0005
    --------------------------------------------
      LOOP:  cpu time    0.1912: real time    0.1915

 eigenvalue-minimisations  :  1236
 total energy-change (2. order) :-0.3433387E-03  (-0.3898987E-03)
 number of electron      76.0000017 magnetization 
 augmentation part       -1.7940661 magnetization 

 Broyden mixing:
  rms(total) = 0.25147E-02    rms(broyden)= 0.24746E-02
  rms(prec ) = 0.35824E-02
  weight for this iteration     100.00

 eigenvalues of (default mixing * dielectric matrix)
  average eigenvalue GAMMA=   1.7327
  2.6031  2.6031  1.4740  1.4740  1.1210  1.1210

 Free energy of the ion-electron system (eV)
  ---------------------------------------------------
  alpha Z        PSCENC =        68.57190477
  Ewald energy   TEWEN  =     -2729.25415140
  -Hartree energ DENC   =      -651.92538350
  -exchange      EXHF   =         0.00000000
  -V(xc)+E(xc)   XCENC  =       185.66009496
  PAW double counting   =      7408.81784160    -7458.81098585
  entropy T*S    EENTRO =         0.00000000
  eigenvalues    EBANDS =      -669.14991112
  atomic energy  EATOM  =      3769.08782378
  Solvation  Ediel_sol  =         0.00000000
  ---------------------------------------------------
  free energy    TOTEN  =       -77.00276675 eV

  energy without entropy =      -77.00276675  energy(sigma->0) =      -77.00276675


--------------------------------------------------------------------------------------------------------




--------------------------------------- Iteration      1(  12)  ---------------------------------------


    POTLOK:  cpu time    0.0032: real time    0.0035
    SETDIJ:  cpu time    0.0010: real time    0.0010
    EDDIAG:  cpu time    0.0508: real time    0.0508
  RMM-DIIS:  cpu time    0.1011: real time    0.1011
    ORTHCH:  cpu time    0.0067: real time    0.0067
 BZINTS: Fermi energy:  2.252471; 76.000000 electrons
         Band energy:-669.198566;  BLOECHL correction:  0.000000
       DOS:  cpu time    0.0008: real time    0.0008
    CHARGE:  cpu time    0.0145: real time    0.0145
    MIXING:  cpu time    0.0006: real time    0.0006
    --------------------------------------------
      LOOP:  cpu time    0.1788: real time    0.1791

 eigenvalue-minimisations  :  1165
 total energy-change (2. order) :-0.1578723E-03  (-0.1896252E-03)
 number of electron      76.0000017 magnetization 
 augmentation part       -1.7962960 magnetization 

 Broyden mixing:
  rms(total) = 0.15766E-02    rms(broyden)= 0.15453E-02
  rms(prec ) = 0.20453E-02
  weight for this iteration     100.00

 eigenvalues of (default mixing * dielectric matrix)
  average eigenvalue GAMMA=   1.7211
  2.6354  2.6354  1.9401  1.9401  1.2150  1.0302  0.6514

 Free energy of the ion-electron system (eV)
  ---------------------------------------------------
  alpha Z        PSCENC =        68.57190477
  Ewald energy   TEWEN  =     -2729.25415140
  -Hartree energ DENC   =      -651.88823282
  -exchange      EXHF   =         0.00000000
  -V(xc)+E(xc)   XCENC  =       185.65932962
  PAW double counting   =      7407.91914953    -7457.90018195
  entropy T*S    EENTRO =         0.00000000
  eigenvalues    EBANDS =      -669.19856616
  atomic energy  EATOM  =      3769.08782378
  Solvation  Ediel_sol  =         0.00000000
  ---------------------------------------------------
  free energy    TOTEN  =       -77.00292462 eV

  energy without entropy =      -77.00292462  energy(sigma->0) =      -77.00292462


--------------------------------------------------------------------------------------------------------




--------------------------------------- Iteration      1(  13)  ---------------------------------------


    POTLOK:  cpu time    0.0029: real time    0.0031
    SETDIJ:  cpu time    0.0010: real time    0.0010
    EDDIAG:  cpu time    0.0494: real time    0.0494
  RMM-DIIS:  cpu time    0.0766: real time    0.0766
    ORTHCH:  cpu time    0.0067: real time    0.0067
 BZINTS: Fermi energy:  2.252251; 76.000000 electrons
         Band energy:-669.173340;  BLOECHL correction:  0.000000
       DOS:  cpu time    0.0008: real time    0.0008
    CHARGE:  cpu time    0.0145: real time    0.0145
    MIXING:  cpu time    0.0005: real time    0.0005
    --------------------------------------------
      LOOP:  cpu time    0.1525: real time    0.1527

 eigenvalue-minimisations  :   826
 total energy-change (2. order) :-0.8099758E-04  (-0.9187299E-04)
 number of electron      76.0000017 magnetization 
 augmentation part       -1.7971932 magnetization 

 Broyden mixing:
  rms(total) = 0.13087E-02    rms(broyden)= 0.12908E-02
  rms(prec ) = 0.15962E-02
  weight for this iteration     100.00

 eigenvalues of (default mixing * dielectric matrix)
  average eigenvalue GAMMA=   1.6627
  2.9030  2.6212  2.0410  2.0410  1.2227  1.0341  0.7191  0.7191

 Free energy of the ion-electron system (eV)
  ---------------------------------------------------
  alpha Z        PSCENC =        68.57190477
  Ewald energy   TEWEN  =     -2729.25415140
  -Hartree energ DENC   =      -651.92407351
  -exchange      EXHF   =         0.00000000
  -V(xc)+E(xc)   XCENC  =       185.66286352
  PAW double counting   =      7410.10192171    -7460.07595454
  entropy T*S    EENTRO =         0.00000000
  eigenvalues    EBANDS =      -669.17333996
  atomic energy  EATOM  =      3769.08782378
  Solvation  Ediel_sol  =         0.00000000
  ---------------------------------------------------
  free energy    TOTEN  =       -77.00300562 eV

  energy without entropy =      -77.00300562  energy(sigma->0) =      -77.00300562


--------------------------------------------------------------------------------------------------------




--------------------------------------- Iteration      1(  14)  ---------------------------------------


    POTLOK:  cpu time    0.0029: real time    0.0032
    SETDIJ:  cpu time    0.0010: real time    0.0010
    EDDIAG:  cpu time    0.0498: real time    0.0498
  RMM-DIIS:  cpu time    0.0741: real time    0.0742
    ORTHCH:  cpu time    0.0072: real time    0.0072
 BZINTS: Fermi energy:  2.252089; 76.000000 electrons
         Band energy:-669.175754;  BLOECHL correction:  0.000000
       DOS:  cpu time    0.0008: real time    0.0008
    CHARGE:  cpu time    0.0145: real time    0.0145
    MIXING:  cpu time    0.0006: real time    0.0006
    --------------------------------------------
      LOOP:  cpu time    0.1509: real time    0.1513

 eigenvalue-minimisations  :   829
 total energy-change (2. order) :-0.3002920E-04  (-0.3587257E-04)
 number of electron      76.0000017 magnetization 
 augmentation part       -1.7976676 magnetization 

 Broyden mixing:
  rms(total) = 0.10012E-02    rms(broyden)= 0.99578E-03
  rms(prec ) = 0.12860E-02
  weight for this iteration     100.00

 eigenvalues of (default mixing * dielectric matrix)
  average eigenvalue GAMMA=   1.8465
  4.0032  2.3916  2.3188  2.3188  1.6460  1.1346  1.1346  0.9200  0.7505

 Free energy of the ion-electron system (eV)
  ---------------------------------------------------
  alpha Z        PSCENC =        68.57190477
  Ewald energy   TEWEN  =     -2729.25415140
  -Hartree energ DENC   =      -651.92888731
  -exchange      EXHF   =         0.00000000
  -V(xc)+E(xc)   XCENC  =       185.66364838
  PAW double counting   =      7409.64877402    -7459.61639399
  entropy T*S    EENTRO =         0.00000000
  eigenvalues    EBANDS =      -669.17575391
  atomic energy  EATOM  =      3769.08782378
  Solvation  Ediel_sol  =         0.00000000
  ---------------------------------------------------
  free energy    TOTEN  =       -77.00303565 eV

  energy without entropy =      -77.00303565  energy(sigma->0) =      -77.00303565


--------------------------------------------------------------------------------------------------------




--------------------------------------- Iteration      1(  15)  ---------------------------------------


    POTLOK:  cpu time    0.0030: real time    0.0033
    SETDIJ:  cpu time    0.0010: real time    0.0010
    EDDIAG:  cpu time    0.0489: real time    0.0489
  RMM-DIIS:  cpu time    0.0817: real time    0.0817
    ORTHCH:  cpu time    0.0067: real time    0.0067
 BZINTS: Fermi energy:  2.252460; 76.000000 electrons
         Band energy:-669.162942;  BLOECHL correction:  0.000000
       DOS:  cpu time    0.0008: real time    0.0008
    CHARGE:  cpu time    0.0146: real time    0.0146
    MIXING:  cpu time    0.0006: real time    0.0006
    --------------------------------------------
      LOOP:  cpu time    0.1573: real time    0.1576

 eigenvalue-minimisations  :   898
 total energy-change (2. order) :-0.1741538E-04  (-0.2367875E-04)
 number of electron      76.0000017 magnetization 
 augmentation part       -1.7980557 magnetization 

 Broyden mixing:
  rms(total) = 0.38759E-03    rms(broyden)= 0.38188E-03
  rms(prec ) = 0.56666E-03
  weight for this iteration     100.00

 eigenvalues of (default mixing * dielectric matrix)
  average eigenvalue GAMMA=   1.6779
  3.4127  2.3889  2.3015  2.3015  1.7786  1.1442  1.1442  0.9738  0.6668  0.6668

 Free energy of the ion-electron system (eV)
  ---------------------------------------------------
  alpha Z        PSCENC =        68.57190477
  Ewald energy   TEWEN  =     -2729.25415140
  -Hartree energ DENC   =      -651.95726693
  -exchange      EXHF   =         0.00000000
  -V(xc)+E(xc)   XCENC  =       185.66691283
  PAW double counting   =      7410.26445907    -7460.21979321
  entropy T*S    EENTRO =         0.00000000
  eigenvalues    EBANDS =      -669.16294198
  atomic energy  EATOM  =      3769.08782378
  Solvation  Ediel_sol  =         0.00000000
  ---------------------------------------------------
  free energy    TOTEN  =       -77.00305307 eV

  energy without entropy =      -77.00305307  energy(sigma->0) =      -77.00305307


--------------------------------------------------------------------------------------------------------




--------------------------------------- Iteration      1(  16)  ---------------------------------------


    POTLOK:  cpu time    0.0031: real time    0.0034
    SETDIJ:  cpu time    0.0010: real time    0.0010
    EDDIAG:  cpu time    0.0497: real time    0.0497
  RMM-DIIS:  cpu time    0.0704: real time    0.0704
    ORTHCH:  cpu time    0.0067: real time    0.0067
 BZINTS: Fermi energy:  2.252220; 76.000000 electrons
         Band energy:-669.156619;  BLOECHL correction:  0.000000
       DOS:  cpu time    0.0008: real time    0.0008
    --------------------------------------------
      LOOP:  cpu time    0.1316: real time    0.1319

 eigenvalue-minimisations  :   736
 total energy-change (2. order) :-0.6597559E-05  (-0.9380977E-05)
 number of electron      76.0000017 magnetization 
 augmentation part       -1.7980557 magnetization 

 Free energy of the ion-electron system (eV)
  ---------------------------------------------------
  alpha Z        PSCENC =        68.57190477
  Ewald energy   TEWEN  =     -2729.25415140
  -Hartree energ DENC   =      -651.96239377
  -exchange      EXHF   =         0.00000000
  -V(xc)+E(xc)   XCENC  =       185.66707137
  PAW double counting   =      7410.27584670    -7460.23254184
  entropy T*S    EENTRO =         0.00000000
  eigenvalues    EBANDS =      -669.15661927
  atomic energy  EATOM  =      3769.08782378
  Solvation  Ediel_sol  =         0.00000000
  ---------------------------------------------------
  free energy    TOTEN  =       -77.00305966 eV

  energy without entropy =      -77.00305966  energy(sigma->0) =      -77.00305966


--------------------------------------------------------------------------------------------------------




 average (electrostatic) potential at core
  the test charge radii are     0.9587  0.9698  0.7079
  (the norm of the test charge is              1.0000)
       1 -88.3525       2 -88.3525       3 -88.2609       4 -88.2609       5 -88.2609
       6 -88.2609       7 -88.3455       8 -88.3455       9 -88.2036      10 -88.2036
      11 -64.2320      12 -64.2320      13 -63.3968      14 -63.3968      15 -63.3968
      16 -63.3968
 
 
 
 E-fermi :   2.2522     XC(G=0):  -9.1114     alpha+bet :-10.4951


 k-point     1 :       0.0000    0.0000    0.0000
  band No.  band energies     occupation 
      1     -41.3776      2.00000
      2     -41.3776      2.00000
      3     -40.5891      2.00000
      4     -40.5882      2.00000
      5     -40.5882      2.00000
      6     -40.5874      2.00000
      7     -12.6431      2.00000
      8     -12.4755      2.00000
      9      -9.5864      2.00000
     10      -9.5476      2.00000
     11      -9.5037      2.00000
     12      -9.3710      2.00000
     13      -9.3509      2.00000
     14      -9.1422      2.00000
     15      -5.6647      2.00000
     16      -5.0135      2.00000
     17      -2.6193      2.00000
     18      -2.5978      2.00000
     19      -2.5870      2.00000
     20      -2.2632      2.00000
     21      -2.1576      2.00000
     22      -2.1199      2.00000
     23       0.0354      2.00000
     24       0.1165      2.00000
     25       0.2086      2.00000
     26       0.2696      2.00000
     27       0.3787      2.00000
     28       0.4981      2.00000
     29       0.5905      2.00000
     30       1.0100      2.00000
     31       1.3626      2.00000
     32       1.6379      2.00000
     33       1.7396      2.00000
     34       1.7942      2.00000
     35       1.8018      2.00000
     36       1.9183      2.00000
     37       2.0137      2.00000
     38       2.0547      2.00000
     39       5.7417      0.00000
     40       5.8937      0.00000
     41       6.0022      0.00000
     42       6.2309      0.00000
     43       6.3934      0.00000
     44       7.2580      0.00000
     45       7.4052      0.00000
     46       7.4159      0.00000
     47       7.9228      0.00000
     48       8.1115      0.00000

 k-point     2 :       0.3333    0.0000    0.0000
  band No.  band energies     occupation 
      1     -41.3776      2.00000
      2     -41.3776      2.00000
      3     -40.5889      2.00000
      4     -40.5885      2.00000
      5     -40.5880      2.00000
      6     -40.5876      2.00000
      7     -12.6029      2.00000
      8     -12.5191      2.00000
      9      -9.5692      2.00000
     10      -9.5230      2.00000
     11      -9.5225      2.00000
     12      -9.4258      2.00000
     13      -9.2901      2.00000
     14      -9.1803      2.00000
     15      -5.4807      2.00000
     16      -5.1543      2.00000
     17      -2.6944      2.00000
     18      -2.6759      2.00000
     19      -2.5033      2.00000
     20      -2.3190      2.00000
     21      -2.1567      2.00000
     22      -2.1003      2.00000
     23      -0.0713      2.00000
     24      -0.0225      2.00000
     25       0.3005      2.00000
     26       0.4800      2.00000
     27       0.4847      2.00000
     28       0.7218      2.00000
     29       0.9212      2.00000
     30       1.0195      2.00000
     31       1.2939      2.00000
     32       1.4300      2.00000
     33       1.5703      2.00000
     34       1.6290      2.00000
     35       1.6644      2.00000
     36       1.8552      2.00000
     37       1.8828      2.00000
     38       1.9683      2.00000
     39       6.0194      0.00000
     40       6.0325      0.00000
     41       6.2881      0.00000
     42       6.3756      0.00000
     43       6.6597      0.00000
     44       6.8528      0.00000
     45       7.2788      0.00000
     46       7.3402      0.00000
     47       8.1688      0.00000
     48       8.6337      0.00000

 k-point     3 :       0.0000    0.3333    0.0000
  band No.  band energies     occupation 
      1     -41.3776      2.00000
      2     -41.3776      2.00000
      3     -40.5891      2.00000
      4     -40.5883      2.00000
      5     -40.5882      2.00000
      6     -40.5873      2.00000
      7     -12.5880      2.00000
      8     -12.4879      2.00000
      9      -9.7438      2.00000
     10      -9.5224      2.00000
     11      -9.5151      2.00000
     12      -9.3841      2.00000
     13      -9.3189      2.00000
     14      -9.1983      2.00000
     15      -5.4237      2.00000
     16      -5.0767      2.00000
     17      -2.6668      2.00000
     18      -2.4046      2.00000
     19      -2.3214      2.00000
     20      -2.2770      2.00000
     21      -2.1571      2.00000
     22      -2.1202      2.00000
     23      -0.1168      2.00000
     24       0.0195      2.00000
     25       0.0587      2.00000
     26       0.2141      2.00000
     27       0.3201      2.00000
     28       0.6801      2.00000
     29       0.9109      2.00000
     30       0.9689      2.00000
     31       1.1461      2.00000
     32       1.5240      2.00000
     33       1.5628      2.00000
     34       1.6475      2.00000
     35       1.7504      2.00000
     36       1.8034      2.00000
     37       2.1706      2.00000
     38       2.1940      2.00000
     39       5.1082      0.00000
     40       5.9605      0.00000
     41       6.2609      0.00000
     42       6.5273      0.00000
     43       6.7087      0.00000
     44       7.1682      0.00000
     45       7.2181      0.00000
     46       7.2198      0.00000
     47       8.0409      0.00000
     48       8.6218      0.00000

 k-point     4 :       0.3333    0.3333    0.0000
  band No.  band energies     occupation 
      1     -41.3776      2.00000
      2     -41.3776      2.00000
      3     -40.5889      2.00000
      4     -40.5885      2.00000
      5     -40.5880      2.00000
      6     -40.5876      2.00000
      7     -12.5627      2.00000
      8     -12.5125      2.00000
      9      -9.7326      2.00000
     10      -9.6501      2.00000
     11      -9.4245      2.00000
     12      -9.3869      2.00000
     13      -9.2768      2.00000
     14      -9.2179      2.00000
     15      -5.3076      2.00000
     16      -5.1334      2.00000
     17      -2.6460      2.00000
     18      -2.5163      2.00000
     19      -2.3505      2.00000
     20      -2.2679      2.00000
     21      -2.1336      2.00000
     22      -2.1106      2.00000
     23      -0.1704      2.00000
     24      -0.1204      2.00000
     25       0.0272      2.00000
     26       0.2995      2.00000
     27       0.5281      2.00000
     28       0.7408      2.00000
     29       0.9494      2.00000
     30       1.0007      2.00000
     31       1.1310      2.00000
     32       1.3700      2.00000
     33       1.4039      2.00000
     34       1.5700      2.00000
     35       1.7428      2.00000
     36       1.9107      2.00000
     37       2.1017      2.00000
     38       2.1332      2.00000
     39       5.5518      0.00000
     40       6.0110      0.00000
     41       6.4199      0.00000
     42       6.6438      0.00000
     43       6.7941      0.00000
     44       7.0307      0.00000
     45       7.0560      0.00000
     46       7.3112      0.00000
     47       8.3033      0.00000
     48       8.6756      0.00000

 k-point     5 :       0.0000    0.0000    0.3333
  band No.  band energies     occupation 
      1     -41.3777      2.00000
      2     -41.3776      2.00000
      3     -40.5889      2.00000
      4     -40.5885      2.00000
      5     -40.5880      2.00000
      6     -40.5876      2.00000
      7     -12.5772      2.00000
      8     -12.4908      2.00000
      9      -9.5664      2.00000
     10      -9.5291      2.00000
     11      -9.5002      2.00000
     12      -9.4301      2.00000
     13      -9.4019      2.00000
     14      -9.3099      2.00000
     15      -5.4631      2.00000
     16      -5.1131      2.00000
     17      -2.5322      2.00000
     18      -2.4301      2.00000
     19      -2.2206      2.00000
     20      -2.1951      2.00000
     21      -2.1390      2.00000
     22      -1.9888      2.00000
     23      -0.1999      2.00000
     24      -0.1162      2.00000
     25      -0.0188      2.00000
     26       0.0350      2.00000
     27       0.5103      2.00000
     28       0.8483      2.00000
     29       0.8688      2.00000
     30       1.0577      2.00000
     31       1.1812      2.00000
     32       1.4842      2.00000
     33       1.5283      2.00000
     34       1.6378      2.00000
     35       1.7899      2.00000
     36       1.9305      2.00000
     37       1.9903      2.00000
     38       2.1091      2.00000
     39       5.3257      0.00000
     40       5.6489      0.00000
     41       5.9624      0.00000
     42       6.6439      0.00000
     43       6.8108      0.00000
     44       6.8663      0.00000
     45       7.1452      0.00000
     46       7.3416      0.00000
     47       8.2851      0.00000
     48       8.4752      0.00000

 k-point     6 :       0.3333    0.0000    0.3333
  band No.  band energies     occupation 
      1     -41.3776      2.00000
      2     -41.3776      2.00000
      3     -40.5887      2.00000
      4     -40.5883      2.00000
      5     -40.5882      2.00000
      6     -40.5878      2.00000
      7     -12.5550      2.00000
      8     -12.5118      2.00000
      9      -9.5800      2.00000
     10      -9.5516      2.00000
     11      -9.5294      2.00000
     12      -9.4846      2.00000
     13      -9.3254      2.00000
     14      -9.2711      2.00000
     15      -5.3538      2.00000
     16      -5.1782      2.00000
     17      -2.5349      2.00000
     18      -2.4766      2.00000
     19      -2.2419      2.00000
     20      -2.2193      2.00000
     21      -2.0832      2.00000
     22      -2.0028      2.00000
     23      -0.1618      2.00000
     24      -0.0932      2.00000
     25       0.1185      2.00000
     26       0.1838      2.00000
     27       0.2805      2.00000
     28       0.5701      2.00000
     29       0.9640      2.00000
     30       0.9954      2.00000
     31       1.2449      2.00000
     32       1.2515      2.00000
     33       1.5556      2.00000
     34       1.6779      2.00000
     35       1.8083      2.00000
     36       1.9575      2.00000
     37       1.9613      2.00000
     38       2.0368      2.00000
     39       5.6220      0.00000
     40       5.8782      0.00000
     41       6.4369      0.00000
     42       6.5751      0.00000
     43       6.8444      0.00000
     44       6.9197      0.00000
     45       7.1574      0.00000
     46       7.4195      0.00000
     47       8.2728      0.00000
     48       8.5987      0.00000

 k-point     7 :       0.0000    0.3333    0.3333
  band No.  band energies     occupation 
      1     -41.3777      2.00000
      2     -41.3776      2.00000
      3     -40.5889      2.00000
      4     -40.5885      2.00000
      5     -40.5880      2.00000
      6     -40.5876      2.00000
      7     -12.5369      2.00000
      8     -12.4853      2.00000
      9      -9.7035      2.00000
     10      -9.5842      2.00000
     11      -9.4827      2.00000
     12      -9.4172      2.00000
     13      -9.3937      2.00000
     14      -9.3323      2.00000
     15      -5.2947      2.00000
     16      -5.1091      2.00000
     17      -2.3339      2.00000
     18      -2.2884      2.00000
     19      -2.2128      2.00000
     20      -2.2056      2.00000
     21      -2.1312      2.00000
     22      -2.0034      2.00000
     23      -0.1549      2.00000
     24      -0.0185      2.00000
     25       0.0611      2.00000
     26       0.1745      2.00000
     27       0.3266      2.00000
     28       0.6439      2.00000
     29       0.8058      2.00000
     30       0.9583      2.00000
     31       1.1658      2.00000
     32       1.2222      2.00000
     33       1.5779      2.00000
     34       1.6580      2.00000
     35       1.7701      2.00000
     36       1.9254      2.00000
     37       2.0154      2.00000
     38       2.0384      2.00000
     39       5.0626      0.00000
     40       5.3803      0.00000
     41       6.3325      0.00000
     42       6.5476      0.00000
     43       6.7674      0.00000
     44       6.7903      0.00000
     45       7.0009      0.00000
     46       7.0082      0.00000
     47       8.1043      0.00000
     48       8.6997      0.00000

 k-point     8 :       0.3333    0.3333    0.3333
  band No.  band energies     occupation 
      1     -41.3776      2.00000
      2     -41.3776      2.00000
      3     -40.5887      2.00000
      4     -40.5883      2.00000
      5     -40.5882      2.00000
      6     -40.5878      2.00000
      7     -12.5232      2.00000
      8     -12.4973      2.00000
      9      -9.6828      2.00000
     10      -9.6232      2.00000
     11      -9.4921      2.00000
     12      -9.4495      2.00000
     13      -9.3522      2.00000
     14      -9.3290      2.00000
     15      -5.2035      2.00000
     16      -5.1099      2.00000
     17      -2.4329      2.00000
     18      -2.3834      2.00000
     19      -2.1834      2.00000
     20      -2.1626      2.00000
     21      -2.0239      2.00000
     22      -1.9663      2.00000
     23      -0.2754      2.00000
     24      -0.2005      2.00000
     25      -0.0956      2.00000
     26       0.1174      2.00000
     27       0.5048      2.00000
     28       0.6056      2.00000
     29       0.8389      2.00000
     30       0.9824      2.00000
     31       1.0498      2.00000
     32       1.1749      2.00000
     33       1.5977      2.00000
     34       1.6684      2.00000
     35       1.7671      2.00000
     36       1.8988      2.00000
     37       2.0855      2.00000
     38       2.1863      2.00000
     39       5.3489      0.00000
     40       5.6288      0.00000
     41       6.4653      0.00000
     42       6.5635      0.00000
     43       6.7866      0.00000
     44       6.9190      0.00000
     45       7.0805      0.00000
     46       7.2480      0.00000
     47       8.2223      0.00000
     48       8.6132      0.00000


--------------------------------------------------------------------------------------------------------


 soft charge-density along one line, spin component           1
         0         1         2         3         4         5         6         7         8         9
 total charge-density along one line
 
 pseudopotential strength for first ion, spin component:           1
 30.060  37.506   0.002  -0.001  -0.000   0.003  -0.002  -0.000
 37.506  46.800   0.002  -0.002  -0.000   0.003  -0.003  -0.000
  0.002   0.002   6.587  -0.000   0.000  10.200  -0.000   0.000
 -0.001  -0.002  -0.000   6.586   0.000  -0.000  10.198   0.000
 -0.000  -0.000   0.000   0.000   6.586   0.000   0.000  10.198
  0.003   0.003  10.200  -0.000   0.000  15.813  -0.000   0.000
 -0.002  -0.003  -0.000  10.198   0.000  -0.000  15.810   0.000
 -0.000  -0.000   0.000   0.000  10.198   0.000   0.000  15.811
 total augmentation occupancy for first ion, spin component:           1
 10.973  -6.269  -0.000  -0.022   0.000   0.001   0.010   0.000
 -6.269   4.029   0.008   0.012   0.000  -0.003  -0.006   0.000
 -0.000   0.008   4.533  -0.119   0.000  -1.530   0.056   0.000
 -0.022   0.012  -0.119   4.216   0.000   0.056  -1.386   0.000
  0.000   0.000   0.000   0.000   4.380   0.000   0.000  -1.461
  0.001  -0.003  -1.530   0.056   0.000   0.556  -0.025   0.000
  0.010  -0.006   0.056  -1.386   0.000  -0.025   0.493   0.000
  0.000   0.000   0.000   0.000  -1.461   0.000   0.000   0.526


------------------------ aborting loop because EDIFF is reached ----------------------------------------


    CHARGE:  cpu time    0.0148: real time    0.0148
    FORLOC:  cpu time    0.0008: real time    0.0008
    FORNL :  cpu time    0.0345: real time    0.0347
    STRESS:  cpu time    0.1019: real time    0.1024
    FORCOR:  cpu time    0.0025: real time    0.0025
    FORHAR:  cpu time    0.0023: real time    0.0023
    MIXING:  cpu time    0.0005: real time    0.0005
    OFIELD:  cpu time    0.0001: real time    0.0002

  FORCE on cell =-STRESS in cart. coord.  units (eV):
  Direction    XX          YY          ZZ          XY          YZ          ZX
  --------------------------------------------------------------------------------------
  Alpha Z    68.57190    68.57190    68.57190
  Ewald    -850.03730  -952.13015  -927.09205     0.00000     0.00000     0.00000
  Hartree   237.95103   196.45088   217.58200     0.00000    -0.00000     0.00000
  E(xc)    -277.48814  -277.42329  -277.37385    -0.00000    -0.00000    -0.00000
  Local    -734.50286  -592.45250  -641.60489    -0.00000     0.00000    -0.00000
  n-local   603.31644   602.52085   600.74028    -0.11158    -0.04134    -0.11409
  augment   -45.19531   -44.84368   -45.19656     0.00000     0.00000     0.00000
  Kinetic  1001.07594   997.84828  1005.29943     0.29006    -0.46728     0.14451
  Fock        0.00000     0.00000     0.00000     0.00000     0.00000     0.00000
  -------------------------------------------------------------------------------------
  Total       3.69171    -1.45771     0.92627     0.00000     0.00000     0.00000
  in kB      20.55379    -8.11589     5.15708     0.00000     0.00000     0.00000
  external pressure =        5.86 kB  Pullay stress =        0.00 kB


 VOLUME and BASIS-vectors are now :
 -----------------------------------------------------------------------------
  energy-cutoff  :      420.00
  volume of cell :      287.77
      direct lattice vectors                 reciprocal lattice vectors
     7.667166225  0.000000000  0.000000000     0.130426284  0.000000000  0.000000000
     0.000000000  6.222203803  0.000000000     0.000000000  0.160714761  0.000000000
     0.000000000  0.000000000  6.032076935     0.000000000  0.000000000  0.165780379

  length of vectors
     7.667166225  6.222203803  6.032076935     0.130426284  0.160714761  0.165780379


 FORCES acting on ions
    electron-ion (+dipol)            ewald-force                    non-local-force                 convergence-correction
 -----------------------------------------------------------------------------------------------
   0.327E-09 -.258E+01 0.321E+01   0.819E-09 0.241E+01 -.308E+01   0.000E+00 -.344E+00 0.200E+00   0.938E-10 0.779E-03 0.372E-03
   0.583E-08 0.258E+01 0.321E+01   0.217E-08 -.241E+01 -.308E+01   0.000E+00 0.344E+00 0.200E+00   -.954E-10 -.779E-03 0.372E-03
   -.544E+02 0.252E+02 0.146E+02   0.564E+02 -.268E+02 -.156E+02   -.203E+01 0.144E+01 0.122E+01   0.278E-02 -.103E-02 -.120E-02
   0.544E+02 -.252E+02 0.146E+02   -.564E+02 0.268E+02 -.156E+02   0.203E+01 -.144E+01 0.122E+01   -.278E-02 0.103E-02 -.120E-02
   -.544E+02 -.252E+02 0.146E+02   0.564E+02 0.268E+02 -.156E+02   -.203E+01 -.144E+01 0.122E+01   0.278E-02 0.103E-02 -.120E-02
   0.544E+02 0.252E+02 0.146E+02   -.564E+02 -.268E+02 -.156E+02   0.203E+01 0.144E+01 0.122E+01   -.278E-02 -.103E-02 -.120E-02
   0.309E-09 -.602E+02 0.326E+02   -.427E-08 0.627E+02 -.331E+02   0.000E+00 -.259E+01 -.132E+00   0.117E-09 0.253E-02 0.967E-04
   0.151E-07 0.602E+02 0.326E+02   0.613E-08 -.627E+02 -.331E+02   0.000E+00 0.259E+01 -.132E+00   -.117E-09 -.253E-02 0.967E-04
   -.589E-09 0.122E+02 -.574E+02   -.119E-08 -.131E+02 0.601E+02   0.000E+00 0.143E+01 -.268E+01   0.116E-09 0.203E-03 0.285E-02
   0.161E-07 -.122E+02 -.574E+02   0.309E-08 0.131E+02 0.601E+02   0.000E+00 -.143E+01 -.268E+01   -.117E-09 -.203E-03 0.285E-02
   -.310E-09 -.653E+01 -.107E+02   -.278E-08 0.589E+01 0.105E+02   0.000E+00 0.329E+00 0.310E+00   0.581E-10 0.244E-04 -.363E-03
   0.111E-07 0.653E+01 -.107E+02   0.417E-08 -.589E+01 0.105E+02   0.000E+00 -.329E+00 0.310E+00   -.577E-10 -.244E-04 -.363E-03
   0.912E+00 0.439E+01 0.161E+01   -.105E+01 -.411E+01 -.164E+01   0.456E-01 -.521E+00 -.975E-01   0.506E-04 0.213E-03 -.356E-04
   -.912E+00 -.439E+01 0.161E+01   0.105E+01 0.411E+01 -.164E+01   -.456E-01 0.521E+00 -.975E-01   -.506E-04 -.213E-03 -.356E-04
   0.912E+00 -.439E+01 0.161E+01   -.105E+01 0.411E+01 -.164E+01   0.456E-01 0.521E+00 -.975E-01   0.506E-04 -.213E-03 -.356E-04
   -.912E+00 0.439E+01 0.161E+01   0.105E+01 -.411E+01 -.164E+01   -.456E-01 -.521E+00 -.975E-01   -.506E-04 0.213E-03 -.356E-04
 -----------------------------------------------------------------------------------------------
   0.553E-07 -.376E-06 0.119E+00   -.178E-13 0.169E-13 -.999E-14   -.444E-15 -.222E-15 -.124E+00   -.203E-11 -.154E-11 0.970E-03
 
 
 POSITION                                       TOTAL-FORCE (eV/Angst)
 -----------------------------------------------------------------------------------
      0.00000      2.05880      1.79892         0.000000     -0.504752      0.335124
      3.83358      4.16340      4.81495         0.000000      0.504752      0.335124
      1.67289      1.15665      1.07075        -0.051890     -0.101397      0.175204
      2.16070      5.06556      4.08679         0.051890      0.101397      0.175204
      5.50647      5.06556      4.08679        -0.051890      0.101397      0.175204
      5.99428      1.15665      1.07075         0.051890     -0.101397      0.175204
      0.00000      4.02125      1.35485         0.000000     -0.130104     -0.615309
      3.83358      2.20096      4.37089         0.000000      0.130104     -0.615309
      0.00000      1.69228      3.81341         0.000000      0.536782      0.004763
      3.83358      4.52992      0.79737         0.000000     -0.536782      0.004763
      0.00000      4.09778      4.65824         0.000000     -0.307739      0.180217
      3.83358      2.12442      1.64220         0.000000      0.307739      0.180217
      1.93557      1.11950      4.83929        -0.096692     -0.245303     -0.127602
      1.89801      5.10271      1.82325         0.096692      0.245303     -0.127602
      5.76915      5.10271      1.82325        -0.096692      0.245303     -0.127602
      5.73160      1.11950      4.83929         0.096692     -0.245303     -0.127602
 -----------------------------------------------------------------------------------
    total drift:                                0.000000     -0.000000     -0.004139


--------------------------------------------------------------------------------------------------------



  FREE ENERGIE OF THE ION-ELECTRON SYSTEM (eV)
  ---------------------------------------------------
  free  energy   TOTEN  =       -77.00305966 eV

  energy  without entropy=      -77.00305966  energy(sigma->0) =      -77.00305966
 


--------------------------------------------------------------------------------------------------------


    POTLOK:  cpu time    0.0037: real time    0.0037


--------------------------------------------------------------------------------------------------------


     LOOP+:  cpu time    3.1493: real time    3.1724
    4ORBIT:  cpu time    0.0000: real time    0.0000
 BZINTS: Fermi energy:  2.252220; 76.000000 electrons
         Band energy:-669.156619;  BLOECHL correction:  0.000000

 total amount of memory used by VASP MPI-rank0    33581. kBytes
=======================================================================

   base      :      30000. kBytes
   nonlr-proj:       1216. kBytes
   fftplans  :        656. kBytes
   grid      :       1147. kBytes
   one-center:          3. kBytes
   wavefun   :        559. kBytes
 
  
  
 General timing and accounting informations for this job:
 ========================================================
  
                  Total CPU time used (sec):        4.035
                            User time (sec):        3.644
                          System time (sec):        0.391
                         Elapsed time (sec):        5.223
  
                   Maximum memory used (kb):      142148.
                   Average memory used (kb):           0.
  
                          Minor page faults:        21026
                          Major page faults:           89
                 Voluntary context switches:         2086
