<?xml version="1.0" encoding="ISO-8859-1"?>
<modeling>
 <generator>
  <i name="program" type="string">vasp </i>
  <i name="version" type="string">5.4.4.18Apr17-6-g9f103f2a35  </i>
  <i name="subversion" type="string">(build Feb 28 2020 14:15:47) complex            parallel </i>
  <i name="platform" type="string">LinuxIFC </i>
  <i name="date" type="string">2022 08 06 </i>
  <i name="time" type="string">21:55:59 </i>
 </generator>
 <incar>
  <i type="int" name="ISTART">     0</i>
  <i type="string" name="PREC">accurate</i>
  <i type="string" name="ALGO"> FAST</i>
  <i type="int" name="ISPIN">     1</i>
  <i type="int" name="ICHARG">     2</i>
  <i type="int" name="INIWAV">     1</i>
  <i type="int" name="NELM">   100</i>
  <i type="int" name="IBRION">     2</i>
  <i name="EDIFF">      0.00002000</i>
  <i name="EDIFFG">      0.00020000</i>
  <i type="int" name="NSW">     0</i>
  <i type="int" name="ISIF">     7</i>
  <i name="ENCUT">    420.00000000</i>
  <i type="string" name="LREAL"> AUTO</i>
  <i type="int" name="ISMEAR">    -5</i>
  <i type="logical" name="LWAVE"> F  </i>
  <i type="logical" name="LCHARG"> F  </i>
  <v type="int" name="KPOINT_BSE">    -1     0     0     0</v>
  <i type="int" name="NELM">   100</i>
 </incar>
 <structure name="primitive_cell" >
  <crystal>
   <varray name="basis" >
    <v>       7.66716623       0.00000000       0.00000000 </v>
    <v>       0.00000000       6.22220380       0.00000000 </v>
    <v>       0.00000000       0.00000000       6.03207693 </v>
   </varray>
   <i name="volume">    287.77030882 </i>
   <varray name="rec_basis" >
    <v>       0.13042628       0.00000000       0.00000000 </v>
    <v>       0.00000000       0.16071476       0.00000000 </v>
    <v>       0.00000000       0.00000000       0.16578038 </v>
   </varray>
  </crystal>
  <varray name="positions" >
   <v>       0.00000000       0.33087992       0.29822498 </v>
   <v>       0.00000000      -0.35372632       0.22460790 </v>
   <v>      -0.21818844       0.18589048       0.17750938 </v>
   <v>       0.21818844       0.18589048       0.17750938 </v>
   <v>       0.00000000       0.27197485      -0.36781145 </v>
   <v>       0.00000000      -0.34142593      -0.22775489 </v>
   <v>       0.24755100      -0.17991949       0.30225911 </v>
   <v>      -0.24755100      -0.17991949       0.30225911 </v>
   <v>      -0.25244900       0.17991949      -0.19774089 </v>
   <v>       0.25244900       0.17991949      -0.19774089 </v>
   <v>       0.50000000       0.34142593       0.27224511 </v>
   <v>       0.28181156      -0.18589048      -0.32249062 </v>
   <v>      -0.28181156      -0.18589048      -0.32249062 </v>
   <v>       0.50000000       0.35372632      -0.27539210 </v>
   <v>       0.50000000      -0.27197485       0.13218855 </v>
   <v>       0.50000000      -0.33087992      -0.20177502 </v>
  </varray>
 </structure>
 <varray name="primitive_index" >
  <v type="int" >        1 </v>
  <v type="int" >        7 </v>
  <v type="int" >        6 </v>
  <v type="int" >        3 </v>
  <v type="int" >        9 </v>
  <v type="int" >       11 </v>
  <v type="int" >       14 </v>
  <v type="int" >       15 </v>
  <v type="int" >       16 </v>
  <v type="int" >       13 </v>
  <v type="int" >       12 </v>
  <v type="int" >        4 </v>
  <v type="int" >        5 </v>
  <v type="int" >        8 </v>
  <v type="int" >       10 </v>
  <v type="int" >        2 </v>
 </varray>
 <kpoints>
  <generation param="Monkhorst-Pack">
   <v type="int" name="divisions">       3        3        3 </v>
   <v name="usershift">      0.00000000       0.00000000       0.00000000 </v>
   <v name="genvec1">      0.33333333       0.00000000       0.00000000 </v>
   <v name="genvec2">      0.00000000       0.33333333       0.00000000 </v>
   <v name="genvec3">      0.00000000       0.00000000       0.33333333 </v>
   <v name="shift">      0.00000000       0.00000000       0.00000000 </v>
  </generation>
  <varray name="kpointlist" >
   <v>       0.00000000       0.00000000       0.00000000 </v>
   <v>       0.33333333       0.00000000       0.00000000 </v>
   <v>       0.00000000       0.33333333       0.00000000 </v>
   <v>       0.33333333       0.33333333       0.00000000 </v>
   <v>       0.00000000       0.00000000       0.33333333 </v>
   <v>       0.33333333       0.00000000       0.33333333 </v>
   <v>       0.00000000       0.33333333       0.33333333 </v>
   <v>       0.33333333       0.33333333       0.33333333 </v>
  </varray>
  <varray name="weights" >
   <v>       0.03703704 </v>
   <v>       0.07407407 </v>
   <v>       0.07407407 </v>
   <v>       0.14814815 </v>
   <v>       0.07407407 </v>
   <v>       0.14814815 </v>
   <v>       0.14814815 </v>
   <v>       0.29629630 </v>
  </varray>
  <varray name="tetrahedronlist"  type="int" >
   <v type="int" >        2        1        2        4        5 </v>
   <v type="int" >        2        1        3        4        5 </v>
   <v type="int" >        2        3        4        5        7 </v>
   <v type="int" >        2        2        4        5        6 </v>
   <v type="int" >        2        4        5        6        8 </v>
   <v type="int" >        2        4        5        7        8 </v>
   <v type="int" >        2        2        2        4        6 </v>
   <v type="int" >        2        2        4        4        6 </v>
   <v type="int" >        2        4        4        6        8 </v>
   <v type="int" >        2        2        4        6        6 </v>
   <v type="int" >        2        4        6        6        8 </v>
   <v type="int" >        2        4        6        8        8 </v>
   <v type="int" >        2        1        2        3        6 </v>
   <v type="int" >        2        2        3        4        6 </v>
   <v type="int" >        2        3        4        6        8 </v>
   <v type="int" >        2        1        3        5        6 </v>
   <v type="int" >        2        3        5        6        7 </v>
   <v type="int" >        2        3        6        7        8 </v>
   <v type="int" >        2        3        4        4        7 </v>
   <v type="int" >        2        3        3        4        7 </v>
   <v type="int" >        2        3        4        7        7 </v>
   <v type="int" >        2        4        4        7        8 </v>
   <v type="int" >        2        4        7        8        8 </v>
   <v type="int" >        2        4        7        7        8 </v>
   <v type="int" >        4        4        4        4        8 </v>
   <v type="int" >        4        4        4        8        8 </v>
   <v type="int" >        4        4        8        8        8 </v>
   <v type="int" >        2        3        3        4        8 </v>
   <v type="int" >        2        3        4        4        8 </v>
   <v type="int" >        2        3        4        8        8 </v>
   <v type="int" >        2        3        3        7        8 </v>
   <v type="int" >        2        3        7        7        8 </v>
   <v type="int" >        2        3        7        8        8 </v>
   <v type="int" >        2        2        3        4        7 </v>
   <v type="int" >        2        1        2        3        7 </v>
   <v type="int" >        2        1        2        5        7 </v>
   <v type="int" >        2        2        4        7        8 </v>
   <v type="int" >        2        2        6        7        8 </v>
   <v type="int" >        2        2        5        6        7 </v>
   <v type="int" >        2        2        4        4        8 </v>
   <v type="int" >        2        2        2        4        8 </v>
   <v type="int" >        2        2        2        6        8 </v>
   <v type="int" >        2        2        4        8        8 </v>
   <v type="int" >        2        2        6        8        8 </v>
   <v type="int" >        2        2        6        6        8 </v>
   <v type="int" >        2        1        3        4        8 </v>
   <v type="int" >        2        1        2        4        8 </v>
   <v type="int" >        2        1        2        6        8 </v>
   <v type="int" >        2        1        3        7        8 </v>
   <v type="int" >        2        1        5        7        8 </v>
   <v type="int" >        2        1        5        6        8 </v>
   <v type="int" >        2        5        5        6        8 </v>
   <v type="int" >        2        5        5        7        8 </v>
   <v type="int" >        2        5        7        7        8 </v>
   <v type="int" >        2        5        6        6        8 </v>
   <v type="int" >        2        5        6        8        8 </v>
   <v type="int" >        2        5        7        8        8 </v>
   <v type="int" >        4        6        6        6        8 </v>
   <v type="int" >        4        6        6        8        8 </v>
   <v type="int" >        4        6        8        8        8 </v>
   <v type="int" >        2        5        6        6        7 </v>
   <v type="int" >        2        6        6        7        8 </v>
   <v type="int" >        2        6        7        8        8 </v>
   <v type="int" >        2        5        5        6        7 </v>
   <v type="int" >        2        5        6        7        7 </v>
   <v type="int" >        2        6        7        7        8 </v>
   <v type="int" >        4        7        7        8        8 </v>
   <v type="int" >        4        7        7        7        8 </v>
   <v type="int" >        4        7        8        8        8 </v>
   <v type="int" >        6        8        8        8        8 </v>
  </varray>
  <i name="volumeweight">      0.00617284 </i>
 </kpoints>
 <parameters>
  <separator name="general" >
   <i type="string" name="SYSTEM">unknown system</i>
   <i type="logical" name="LCOMPAT"> F  </i>
  </separator>
  <separator name="electronic" >
   <i type="string" name="PREC">accura</i>
   <i name="ENMAX">    420.00000000</i>
   <i name="ENAUG">    628.94500000</i>
   <i name="EDIFF">      0.00002000</i>
   <i type="int" name="IALGO">    68</i>
   <i type="int" name="IWAVPR">    10</i>
   <i type="int" name="NBANDS">    48</i>
   <i name="NELECT">     76.00000000</i>
   <i type="int" name="TURBO">     0</i>
   <i type="int" name="IRESTART">     0</i>
   <i type="int" name="NREBOOT">     0</i>
   <i type="int" name="NMIN">     0</i>
   <i name="EREF">      0.00000000</i>
   <separator name="electronic smearing" >
    <i type="int" name="ISMEAR">    -5</i>
    <i name="SIGMA">      0.20000000</i>
    <i name="KSPACING">      0.50000000</i>
    <i type="logical" name="KGAMMA"> T  </i>
   </separator>
   <separator name="electronic projectors" >
    <i type="logical" name="LREAL"> T  </i>
    <v name="ROPT">     -0.00025000     -0.00025000     -0.00025000</v>
    <i type="int" name="LMAXPAW">  -100</i>
    <i type="int" name="LMAXMIX">     2</i>
    <i type="logical" name="NLSPLINE"> F  </i>
   </separator>
   <separator name="electronic startup" >
    <i type="int" name="ISTART">     0</i>
    <i type="int" name="ICHARG">     2</i>
    <i type="int" name="INIWAV">     1</i>
   </separator>
   <separator name="electronic spin" >
    <i type="int" name="ISPIN">     1</i>
    <i type="logical" name="LNONCOLLINEAR"> F  </i>
    <v name="MAGMOM">      1.00000000      1.00000000      1.00000000      1.00000000      1.00000000      1.00000000      1.00000000      1.00000000      1.00000000      1.00000000      1.00000000      1.00000000      1.00000000      1.00000000      1.00000000      1.00000000</v>
    <i name="NUPDOWN">     -1.00000000</i>
    <i type="logical" name="LSORBIT"> F  </i>
    <v name="SAXIS">      0.00000000      0.00000000      1.00000000</v>
    <i type="logical" name="LSPIRAL"> F  </i>
    <v name="QSPIRAL">      0.00000000      0.00000000      0.00000000</v>
    <i type="logical" name="LZEROZ"> F  </i>
   </separator>
   <separator name="electronic exchange-correlation" >
    <i type="logical" name="LASPH"> F  </i>
    <i type="logical" name="LMETAGGA"> F  </i>
   </separator>
   <separator name="electronic convergence" >
    <i type="int" name="NELM">   100</i>
    <i type="int" name="NELMDL">    -5</i>
    <i type="int" name="NELMIN">     2</i>
    <i name="ENINI">    420.00000000</i>
    <separator name="electronic convergence detail" >
     <i type="logical" name="LDIAG"> T  </i>
     <i type="logical" name="LSUBROT"> F  </i>
     <i name="WEIMIN">      0.00000000</i>
     <i name="EBREAK">      0.00000010</i>
     <i name="DEPER">      0.30000000</i>
     <i type="int" name="NRMM">     4</i>
     <i name="TIME">      0.40000000</i>
    </separator>
   </separator>
   <separator name="electronic mixer" >
    <i name="AMIX">      0.40000000</i>
    <i name="BMIX">      1.00000000</i>
    <i name="AMIN">      0.10000000</i>
    <i name="AMIX_MAG">      1.60000000</i>
    <i name="BMIX_MAG">      1.00000000</i>
    <separator name="electronic mixer details" >
     <i type="int" name="IMIX">     4</i>
     <i type="logical" name="MIXFIRST"> F  </i>
     <i type="int" name="MAXMIX">   -45</i>
     <i name="WC">    100.00000000</i>
     <i type="int" name="INIMIX">     1</i>
     <i type="int" name="MIXPRE">     1</i>
     <i type="int" name="MREMOVE">     5</i>
    </separator>
   </separator>
   <separator name="electronic dipolcorrection" >
    <i type="logical" name="LDIPOL"> F  </i>
    <i type="logical" name="LMONO"> F  </i>
    <i type="int" name="IDIPOL">     0</i>
    <i name="EPSILON">      1.00000000</i>
    <v name="DIPOL">   -100.00000000   -100.00000000   -100.00000000</v>
    <i name="EFIELD">      0.00000000</i>
   </separator>
  </separator>
  <separator name="grids" >
   <i type="int" name="NGX">    54</i>
   <i type="int" name="NGY">    42</i>
   <i type="int" name="NGZ">    40</i>
   <i type="int" name="NGXF">   108</i>
   <i type="int" name="NGYF">    84</i>
   <i type="int" name="NGZF">    80</i>
   <i type="logical" name="ADDGRID"> F  </i>
  </separator>
  <separator name="ionic" >
   <i type="int" name="NSW">     0</i>
   <i type="int" name="IBRION">    -1</i>
   <i type="int" name="MDALGO">     0</i>
   <i type="int" name="ISIF">     7</i>
   <i name="PSTRESS">      0.00000000</i>
   <i name="EDIFFG">      0.00020000</i>
   <i type="int" name="NFREE">     1</i>
   <i name="POTIM">      0.50000000</i>
   <i name="SMASS">     -3.00000000</i>
   <i name="SCALEE">      1.00000000</i>
  </separator>
  <separator name="ionic md" >
   <i name="TEBEG">      0.00010000</i>
   <i name="TEEND">      0.00010000</i>
   <i type="int" name="NBLOCK">     1</i>
   <i type="int" name="KBLOCK">     1</i>
   <i type="int" name="NPACO">   256</i>
   <i name="APACO">     16.00000000</i>
  </separator>
  <separator name="symmetry" >
   <i type="int" name="ISYM">     2</i>
   <i name="SYMPREC">      0.00001000</i>
  </separator>
  <separator name="dos" >
   <i type="int" name="LORBIT">     0</i>
   <v name="RWIGS">     -1.00000000     -1.00000000     -1.00000000</v>
   <i type="int" name="NEDOS">   301</i>
   <i name="EMIN">     10.00000000</i>
   <i name="EMAX">    -10.00000000</i>
   <i name="EFERMI">      0.00000000</i>
  </separator>
  <separator name="writing" >
   <i type="int" name="NWRITE">     2</i>
   <i type="logical" name="LWAVE"> F  </i>
   <i type="logical" name="LDOWNSAMPLE"> F  </i>
   <i type="logical" name="LCHARG"> F  </i>
   <i type="logical" name="LPARD"> F  </i>
   <i type="logical" name="LVTOT"> F  </i>
   <i type="logical" name="LVHAR"> F  </i>
   <i type="logical" name="LELF"> F  </i>
   <i type="logical" name="LOPTICS"> F  </i>
   <v name="STM">      0.00000000      0.00000000      0.00000000      0.00000000      0.00000000      0.00000000      0.00000000</v>
  </separator>
  <separator name="performance" >
   <i type="int" name="NPAR">     4</i>
   <i type="int" name="NSIM">     4</i>
   <i type="int" name="NBLK">    -1</i>
   <i type="logical" name="LPLANE"> T  </i>
   <i type="logical" name="LSCALAPACK"> T  </i>
   <i type="logical" name="LSCAAWARE"> F  </i>
   <i type="logical" name="LSCALU"> F  </i>
   <i type="logical" name="LASYNC"> F  </i>
   <i type="logical" name="LORBITALREAL"> F  </i>
  </separator>
  <separator name="miscellaneous" >
   <i type="int" name="IDIOT">     3</i>
   <i type="int" name="ISPECIAL">     0</i>
   <i type="logical" name="LMUSIC"> F  </i>
   <v name="POMASS">     30.97400000     32.06600000      7.01000000</v>
   <v name="DARWINR">      0.00000000      0.00000000      0.00000000</v>
   <v name="DARWINV">      1.00000000      1.00000000      1.00000000</v>
   <i type="logical" name="LCORR"> T  </i>
  </separator>
  <i type="logical" name="GGA_COMPAT"> T  </i>
  <i type="logical" name="LBERRY"> F  </i>
  <i type="int" name="ICORELEVEL">     0</i>
  <i type="logical" name="LDAU"> F  </i>
  <i type="int" name="I_CONSTRAINED_M">     0</i>
  <separator name="electronic exchange-correlation" >
   <i type="string" name="GGA">--</i>
   <i type="int" name="VOSKOWN">     0</i>
   <i type="logical" name="LHFCALC"> F  </i>
   <i type="string" name="PRECFOCK"></i>
   <i type="logical" name="LSYMGRAD"> F  </i>
   <i type="logical" name="LHFONE"> F  </i>
   <i type="logical" name="LRHFCALC"> F  </i>
   <i type="logical" name="LTHOMAS"> F  </i>
   <i type="logical" name="LMODELHF"> F  </i>
   <i name="ENCUT4O">     -1.00000000</i>
   <i type="int" name="EXXOEP">     0</i>
   <i type="int" name="FOURORBIT">     0</i>
   <i name="AEXX">      0.00000000</i>
   <i name="HFALPHA">      0.00000000</i>
   <i name="MCALPHA">      0.00000000</i>
   <i name="ALDAX">      1.00000000</i>
   <i name="AGGAX">      1.00000000</i>
   <i name="ALDAC">      1.00000000</i>
   <i name="AGGAC">      1.00000000</i>
   <i type="int" name="NKREDX">     1</i>
   <i type="int" name="NKREDY">     1</i>
   <i type="int" name="NKREDZ">     1</i>
   <i type="logical" name="SHIFTRED"> F  </i>
   <i type="logical" name="ODDONLY"> F  </i>
   <i type="logical" name="EVENONLY"> F  </i>
   <i type="int" name="LMAXFOCK">     0</i>
   <i type="int" name="NMAXFOCKAE">     0</i>
   <i type="logical" name="LFOCKAEDFT"> F  </i>
   <i name="HFSCREEN">      0.00000000</i>
   <i name="HFSCREENC">      0.00000000</i>
   <i type="int" name="NBANDSGWLOW">     0</i>
  </separator>
  <separator name="vdW DFT" >
   <i type="logical" name="LUSE_VDW"> F  </i>
   <i name="Zab_VDW">     -0.84910000</i>
   <i name="PARAM1">      0.12340000</i>
   <i name="PARAM2">      1.00000000</i>
   <i name="PARAM3">      0.00000000</i>
  </separator>
  <separator name="model GW" >
   <i type="int" name="MODEL_GW">     0</i>
   <i name="MODEL_EPS0">     10.79138658</i>
   <i name="MODEL_ALPHA">      1.00000000</i>
  </separator>
  <separator name="linear response parameters" >
   <i type="logical" name="LEPSILON"> F  </i>
   <i type="logical" name="LRPA"> F  </i>
   <i type="logical" name="LNABLA"> F  </i>
   <i type="logical" name="LVEL"> F  </i>
   <i type="int" name="KINTER">     0</i>
   <i name="CSHIFT">      0.10000000</i>
   <i name="OMEGAMAX">     -1.00000000</i>
   <i name="DEG_THRESHOLD">      0.00200000</i>
   <i name="RTIME">     -0.10000000</i>
   <i name="WPLASMAI">      0.00000000</i>
   <v name="DFIELD">      0.00000000      0.00000000      0.00000000</v>
   <v name="WPLASMA">      0.00000000      0.00000000      0.00000000      0.00000000      0.00000000      0.00000000      0.00000000      0.00000000      0.00000000</v>
  </separator>
  <separator name="orbital magnetization" >
   <i type="logical" name="NUCIND"> F  </i>
   <v name="MAGPOS">      0.00000000      0.00000000      0.00000000</v>
   <i type="logical" name="LNICSALL"> T  </i>
   <i type="logical" name="ORBITALMAG"> F  </i>
   <i type="logical" name="LMAGBLOCH"> F  </i>
   <i type="logical" name="LCHIMAG"> F  </i>
   <i type="logical" name="LGAUGE"> T  </i>
   <i type="int" name="MAGATOM">     0</i>
   <v name="MAGDIPOL">      0.00000000      0.00000000      0.00000000</v>
   <v name="AVECCONST">      0.00000000      0.00000000      0.00000000</v>
  </separator>
  <separator name="response functions" >
   <i type="logical" name="LADDER"> F  </i>
   <i type="logical" name="LRPAFORCE"> F  </i>
   <i type="logical" name="LFXC"> F  </i>
   <i type="logical" name="LHARTREE"> T  </i>
   <i type="int" name="IBSE">     0</i>
   <v type="int" name="KPOINT">    -1     0     0     0</v>
   <i type="logical" name="LTCTE"> F  </i>
   <i type="logical" name="LTETE"> F  </i>
   <i type="logical" name="LTRIPLET"> F  </i>
   <i type="logical" name="LFXCEPS"> F  </i>
   <i type="logical" name="LFXHEG"> F  </i>
   <i type="int" name="NATURALO">     2</i>
   <i type="logical" name="L2ORDER"> F  </i>
   <i type="logical" name="LMP2LT"> F  </i>
   <i type="logical" name="LUSEW"> F  </i>
   <i name="ENCUTGW">     -2.00000000</i>
   <i name="ENCUTGWSOFT">     -2.00000000</i>
   <i name="ENCUTLF">     -1.00000000</i>
   <i type="int" name="LMAXMP2">    -1</i>
   <i name="SCISSOR">      0.00000000</i>
   <i type="int" name="NOMEGA">     0</i>
   <i type="int" name="NOMEGAR">     0</i>
   <i type="int" name="NBANDSGW">    -1</i>
   <i type="int" name="NBANDSO">    -1</i>
   <i type="int" name="NBANDSV">    -1</i>
   <i type="int" name="NELM">   100</i>
   <i type="int" name="NELMHF">     1</i>
   <i type="int" name="DIM">     3</i>
   <i type="int" name="ANTIRES">     0</i>
   <i name="OMEGAMAX">    -30.00000000</i>
   <i name="OMEGAMIN">    -30.00000000</i>
   <i name="OMEGATL">   -200.00000000</i>
   <i type="int" name="OMEGAGRID">   140</i>
   <i name="CSHIFT">     -0.10000000</i>
   <i type="logical" name="SELFENERGY"> F  </i>
   <i type="logical" name="LSPECTRAL"> F  </i>
   <i type="logical" name="LSPECTRALGW"> F  </i>
   <i type="logical" name="LSINGLES"> F  </i>
   <i type="logical" name="LFERMIGW"> F  </i>
   <i type="logical" name="ODDONLYGW"> F  </i>
   <i type="logical" name="EVENONLYGW"> F  </i>
   <i type="int" name="NKREDLFX">     1</i>
   <i type="int" name="NKREDLFY">     1</i>
   <i type="int" name="NKREDLFZ">     1</i>
   <i type="int" name="MAXMEM">  2800</i>
   <i type="int" name="TELESCOPE">     0</i>
   <i type="int" name="TAUPAR">     1</i>
   <i type="int" name="OMEGAPAR">    -1</i>
   <i name="LAMBDA">      1.00000000</i>
  </separator>
  <separator name="External order field" >
   <i name="OFIELD_KAPPA">      0.00000000</i>
   <v name="OFIELD_K">      0.00000000      0.00000000      0.00000000</v>
   <i name="OFIELD_Q6_NEAR">      0.00000000</i>
   <i name="OFIELD_Q6_FAR">      0.00000000</i>
   <i name="OFIELD_A">      0.00000000</i>
  </separator>
 </parameters>
 <atominfo>
  <atoms>      16 </atoms>
  <types>       3 </types>
  <array name="atoms" >
   <dimension dim="1">ion</dimension>
   <field type="string">element</field>
   <field type="int">atomtype</field>
   <set>
    <rc><c>P </c><c>   1</c></rc>
    <rc><c>P </c><c>   1</c></rc>
    <rc><c>S </c><c>   2</c></rc>
    <rc><c>S </c><c>   2</c></rc>
    <rc><c>S </c><c>   2</c></rc>
    <rc><c>S </c><c>   2</c></rc>
    <rc><c>S </c><c>   2</c></rc>
    <rc><c>S </c><c>   2</c></rc>
    <rc><c>S </c><c>   2</c></rc>
    <rc><c>S </c><c>   2</c></rc>
    <rc><c>Li</c><c>   3</c></rc>
    <rc><c>Li</c><c>   3</c></rc>
    <rc><c>Li</c><c>   3</c></rc>
    <rc><c>Li</c><c>   3</c></rc>
    <rc><c>Li</c><c>   3</c></rc>
    <rc><c>Li</c><c>   3</c></rc>
   </set>
  </array>
  <array name="atomtypes" >
   <dimension dim="1">type</dimension>
   <field type="int">atomspertype</field>
   <field type="string">element</field>
   <field>mass</field>
   <field>valence</field>
   <field type="string">pseudopotential</field>
   <set>
    <rc><c>   2</c><c>P </c><c>     30.97400000</c><c>      5.00000000</c><c>  PAW P 26Mar2009                       </c></rc>
    <rc><c>   8</c><c>S </c><c>     32.06600000</c><c>      6.00000000</c><c>  PAW S 27Mar2009                       </c></rc>
    <rc><c>   6</c><c>Li</c><c>      7.01000000</c><c>      3.00000000</c><c>  PAW Li_sv 10Sep2004                   </c></rc>
   </set>
  </array>
 </atominfo>
 <structure name="initialpos" >
  <crystal>
   <varray name="basis" >
    <v>       7.66716623       0.00000000       0.00000000 </v>
    <v>       0.00000000       6.22220380       0.00000000 </v>
    <v>       0.00000000       0.00000000       6.03207693 </v>
   </varray>
   <i name="volume">    287.77030882 </i>
   <varray name="rec_basis" >
    <v>       0.13042628       0.00000000       0.00000000 </v>
    <v>       0.00000000       0.16071476       0.00000000 </v>
    <v>       0.00000000       0.00000000       0.16578038 </v>
   </varray>
  </crystal>
  <varray name="positions" >
   <v>       0.00000000       0.33087992       0.29822498 </v>
   <v>       0.50000000       0.66912008       0.79822498 </v>
   <v>       0.21818844       0.18589048       0.17750938 </v>
   <v>       0.28181156       0.81410952       0.67750938 </v>
   <v>       0.71818844       0.81410952       0.67750938 </v>
   <v>       0.78181156       0.18589048       0.17750938 </v>
   <v>       0.00000000       0.64627368       0.22460790 </v>
   <v>       0.50000000       0.35372632       0.72460790 </v>
   <v>       0.00000000       0.27197485       0.63218855 </v>
   <v>       0.50000000       0.72802515       0.13218855 </v>
   <v>       0.00000000       0.65857407       0.77224511 </v>
   <v>       0.50000000       0.34142593       0.27224511 </v>
   <v>       0.25244900       0.17991949       0.80225911 </v>
   <v>       0.24755100       0.82008051       0.30225911 </v>
   <v>       0.75244900       0.82008051       0.30225911 </v>
   <v>       0.74755100       0.17991949       0.80225911 </v>
  </varray>
 </structure>
 <calculation>
  <scstep>
   <time name="dav">    0.20    0.21</time>
   <time name="total">    0.21    0.23</time>
   <energy>
    <i name="alphaZ">     68.57190477 </i>
    <i name="ewald">  -2729.25415140 </i>
    <i name="hartreedc">   -619.98636785 </i>
    <i name="XCdc">    181.90862915 </i>
    <i name="pawpsdc">   2494.22442938 </i>
    <i name="pawaedc">  -2541.12215007 </i>
    <i name="eentropy">      0.00000000 </i>
    <i name="bandstr">   -117.70949021 </i>
    <i name="atom">   3769.08782378 </i>
    <i name="e_fr_energy">    505.72062756 </i>
    <i name="e_wo_entrp">    505.72062756 </i>
    <i name="e_0_energy">    505.72062756 </i>
   </energy>
  </scstep>
  <scstep>
   <time name="dav">    0.20    0.20</time>
   <time name="total">    0.20    0.20</time>
   <energy>
    <i name="e_fr_energy">     -9.35417001 </i>
    <i name="e_wo_entrp">     -9.35417001 </i>
    <i name="e_0_energy">     -9.35417001 </i>
   </energy>
  </scstep>
  <scstep>
   <time name="dav">    0.22    0.22</time>
   <time name="total">    0.23    0.23</time>
   <energy>
    <i name="e_fr_energy">    -71.95813023 </i>
    <i name="e_wo_entrp">    -71.95813023 </i>
    <i name="e_0_energy">    -71.95813023 </i>
   </energy>
  </scstep>
  <scstep>
   <time name="dav">    0.27    0.27</time>
   <time name="total">    0.28    0.28</time>
   <energy>
    <i name="e_fr_energy">    -79.01936487 </i>
    <i name="e_wo_entrp">    -79.01936487 </i>
    <i name="e_0_energy">    -79.01936487 </i>
   </energy>
  </scstep>
  <scstep>
   <time name="dav">    0.23    0.23</time>
   <time name="total">    0.25    0.25</time>
   <energy>
    <i name="e_fr_energy">    -79.86227546 </i>
    <i name="e_wo_entrp">    -79.86227546 </i>
    <i name="e_0_energy">    -79.86227546 </i>
   </energy>
  </scstep>
  <scstep>
   <time name="diag">    0.05    0.05</time>
   <time name="diis">    0.08    0.08</time>
   <time name="orth">    0.01    0.01</time>
   <time name="total">    0.16    0.16</time>
   <energy>
    <i name="e_fr_energy">    -77.50111231 </i>
    <i name="e_wo_entrp">    -77.50111231 </i>
    <i name="e_0_energy">    -77.50111231 </i>
   </energy>
  </scstep>
  <scstep>
   <time name="diag">    0.05    0.05</time>
   <time name="diis">    0.09    0.09</time>
   <time name="orth">    0.01    0.01</time>
   <time name="total">    0.16    0.16</time>
   <energy>
    <i name="e_fr_energy">    -77.07585881 </i>
    <i name="e_wo_entrp">    -77.07585881 </i>
    <i name="e_0_energy">    -77.07585881 </i>
   </energy>
  </scstep>
  <scstep>
   <time name="diag">    0.05    0.05</time>
   <time name="diis">    0.09    0.09</time>
   <time name="orth">    0.01    0.01</time>
   <time name="total">    0.17    0.17</time>
   <energy>
    <i name="e_fr_energy">    -77.00730622 </i>
    <i name="e_wo_entrp">    -77.00730622 </i>
    <i name="e_0_energy">    -77.00730622 </i>
   </energy>
  </scstep>
  <scstep>
   <time name="diag">    0.05    0.05</time>
   <time name="diis">    0.10    0.10</time>
   <time name="orth">    0.01    0.01</time>
   <time name="total">    0.18    0.18</time>
   <energy>
    <i name="e_fr_energy">    -77.00181487 </i>
    <i name="e_wo_entrp">    -77.00181487 </i>
    <i name="e_0_energy">    -77.00181487 </i>
   </energy>
  </scstep>
  <scstep>
   <time name="diag">    0.05    0.05</time>
   <time name="diis">    0.11    0.11</time>
   <time name="orth">    0.01    0.01</time>
   <time name="total">    0.19    0.19</time>
   <energy>
    <i name="e_fr_energy">    -77.00242341 </i>
    <i name="e_wo_entrp">    -77.00242341 </i>
    <i name="e_0_energy">    -77.00242341 </i>
   </energy>
  </scstep>
  <scstep>
   <time name="diag">    0.05    0.05</time>
   <time name="diis">    0.11    0.11</time>
   <time name="orth">    0.01    0.01</time>
   <time name="total">    0.19    0.19</time>
   <energy>
    <i name="e_fr_energy">    -77.00276675 </i>
    <i name="e_wo_entrp">    -77.00276675 </i>
    <i name="e_0_energy">    -77.00276675 </i>
   </energy>
  </scstep>
  <scstep>
   <time name="diag">    0.05    0.05</time>
   <time name="diis">    0.10    0.10</time>
   <time name="orth">    0.01    0.01</time>
   <time name="total">    0.18    0.18</time>
   <energy>
    <i name="e_fr_energy">    -77.00292462 </i>
    <i name="e_wo_entrp">    -77.00292462 </i>
    <i name="e_0_energy">    -77.00292462 </i>
   </energy>
  </scstep>
  <scstep>
   <time name="diag">    0.05    0.05</time>
   <time name="diis">    0.08    0.08</time>
   <time name="orth">    0.01    0.01</time>
   <time name="total">    0.15    0.15</time>
   <energy>
    <i name="e_fr_energy">    -77.00300562 </i>
    <i name="e_wo_entrp">    -77.00300562 </i>
    <i name="e_0_energy">    -77.00300562 </i>
   </energy>
  </scstep>
  <scstep>
   <time name="diag">    0.05    0.05</time>
   <time name="diis">    0.07    0.07</time>
   <time name="orth">    0.01    0.01</time>
   <time name="total">    0.15    0.15</time>
   <energy>
    <i name="e_fr_energy">    -77.00303565 </i>
    <i name="e_wo_entrp">    -77.00303565 </i>
    <i name="e_0_energy">    -77.00303565 </i>
   </energy>
  </scstep>
  <scstep>
   <time name="diag">    0.05    0.05</time>
   <time name="diis">    0.08    0.08</time>
   <time name="orth">    0.01    0.01</time>
   <time name="total">    0.16    0.16</time>
   <energy>
    <i name="e_fr_energy">    -77.00305307 </i>
    <i name="e_wo_entrp">    -77.00305307 </i>
    <i name="e_0_energy">    -77.00305307 </i>
   </energy>
  </scstep>
  <scstep>
   <time name="diag">    0.05    0.05</time>
   <time name="diis">    0.07    0.07</time>
   <time name="orth">    0.01    0.01</time>
   <time name="total">    0.13    0.13</time>
   <energy>
    <i name="alphaZ">     68.57190477 </i>
    <i name="ewald">  -2729.25415140 </i>
    <i name="hartreedc">   -651.96239377 </i>
    <i name="XCdc">    185.66707137 </i>
    <i name="pawpsdc">   7410.27584670 </i>
    <i name="pawaedc">  -7460.23254184 </i>
    <i name="eentropy">      0.00000000 </i>
    <i name="bandstr">   -669.15661927 </i>
    <i name="atom">   3769.08782378 </i>
    <i name="e_fr_energy">    -77.00305966 </i>
    <i name="e_wo_entrp">    -77.00305966 </i>
    <i name="e_0_energy">    -77.00305966 </i>
   </energy>
  </scstep>
  <structure>
   <crystal>
    <varray name="basis" >
     <v>       7.66716623       0.00000000       0.00000000 </v>
     <v>       0.00000000       6.22220380       0.00000000 </v>
     <v>       0.00000000       0.00000000       6.03207693 </v>
    </varray>
    <i name="volume">    287.77030882 </i>
    <varray name="rec_basis" >
     <v>       0.13042628       0.00000000       0.00000000 </v>
     <v>       0.00000000       0.16071476       0.00000000 </v>
     <v>       0.00000000       0.00000000       0.16578038 </v>
    </varray>
   </crystal>
   <varray name="positions" >
    <v>       0.00000000       0.33087992       0.29822498 </v>
    <v>       0.50000000       0.66912008       0.79822498 </v>
    <v>       0.21818844       0.18589048       0.17750938 </v>
    <v>       0.28181156       0.81410952       0.67750938 </v>
    <v>       0.71818844       0.81410952       0.67750938 </v>
    <v>       0.78181156       0.18589048       0.17750938 </v>
    <v>       0.00000000       0.64627368       0.22460790 </v>
    <v>       0.50000000       0.35372632       0.72460790 </v>
    <v>       0.00000000       0.27197485       0.63218855 </v>
    <v>       0.50000000       0.72802515       0.13218855 </v>
    <v>       0.00000000       0.65857407       0.77224511 </v>
    <v>       0.50000000       0.34142593       0.27224511 </v>
    <v>       0.25244900       0.17991949       0.80225911 </v>
    <v>       0.24755100       0.82008051       0.30225911 </v>
    <v>       0.75244900       0.82008051       0.30225911 </v>
    <v>       0.74755100       0.17991949       0.80225911 </v>
   </varray>
  </structure>
  <varray name="forces" >
   <v>       0.00000000      -0.50475187       0.33512429 </v>
   <v>       0.00000000       0.50475187       0.33512429 </v>
   <v>      -0.05189015      -0.10139726       0.17520417 </v>
   <v>       0.05189015       0.10139726       0.17520417 </v>
   <v>      -0.05189015       0.10139726       0.17520417 </v>
   <v>       0.05189015      -0.10139726       0.17520417 </v>
   <v>       0.00000000      -0.13010403      -0.61530933 </v>
   <v>       0.00000000       0.13010403      -0.61530933 </v>
   <v>       0.00000000       0.53678159       0.00476308 </v>
   <v>       0.00000000      -0.53678159       0.00476308 </v>
   <v>       0.00000000      -0.30773877       0.18021715 </v>
   <v>       0.00000000       0.30773877       0.18021715 </v>
   <v>      -0.09669203      -0.24530303      -0.12760176 </v>
   <v>       0.09669203       0.24530303      -0.12760176 </v>
   <v>      -0.09669203       0.24530303      -0.12760176 </v>
   <v>       0.09669203      -0.24530303      -0.12760176 </v>
  </varray>
  <varray name="stress" >
   <v>      20.55379340       0.00000000       0.00000000 </v>
   <v>       0.00000000      -8.11589332       0.00000000 </v>
   <v>       0.00000000       0.00000000       5.15707853 </v>
  </varray>
  <energy>
   <i name="e_fr_energy">    -77.00305966 </i>
   <i name="e_wo_entrp">    -77.00305966 </i>
   <i name="e_0_energy">      0.00000000 </i>
  </energy>
  <time name="totalsc">    3.15    3.17</time>
  <eigenvalues>
   <array>
    <dimension dim="1">band</dimension>
    <dimension dim="2">kpoint</dimension>
    <dimension dim="3">spin</dimension>
    <field>eigene</field>
    <field>occ</field>
    <set>
     <set comment="spin 1">
      <set comment="kpoint 1">
       <r>  -41.3776    1.0000 </r>
       <r>  -41.3776    1.0000 </r>
       <r>  -40.5891    1.0000 </r>
       <r>  -40.5882    1.0000 </r>
       <r>  -40.5882    1.0000 </r>
       <r>  -40.5874    1.0000 </r>
       <r>  -12.6431    1.0000 </r>
       <r>  -12.4755    1.0000 </r>
       <r>   -9.5864    1.0000 </r>
       <r>   -9.5476    1.0000 </r>
       <r>   -9.5037    1.0000 </r>
       <r>   -9.3710    1.0000 </r>
       <r>   -9.3509    1.0000 </r>
       <r>   -9.1422    1.0000 </r>
       <r>   -5.6647    1.0000 </r>
       <r>   -5.0135    1.0000 </r>
       <r>   -2.6193    1.0000 </r>
       <r>   -2.5978    1.0000 </r>
       <r>   -2.5870    1.0000 </r>
       <r>   -2.2632    1.0000 </r>
       <r>   -2.1576    1.0000 </r>
       <r>   -2.1199    1.0000 </r>
       <r>    0.0354    1.0000 </r>
       <r>    0.1165    1.0000 </r>
       <r>    0.2086    1.0000 </r>
       <r>    0.2696    1.0000 </r>
       <r>    0.3787    1.0000 </r>
       <r>    0.4981    1.0000 </r>
       <r>    0.5905    1.0000 </r>
       <r>    1.0100    1.0000 </r>
       <r>    1.3626    1.0000 </r>
       <r>    1.6379    1.0000 </r>
       <r>    1.7396    1.0000 </r>
       <r>    1.7942    1.0000 </r>
       <r>    1.8018    1.0000 </r>
       <r>    1.9183    1.0000 </r>
       <r>    2.0137    1.0000 </r>
       <r>    2.0547    1.0000 </r>
       <r>    5.7417    0.0000 </r>
       <r>    5.8937    0.0000 </r>
       <r>    6.0022    0.0000 </r>
       <r>    6.2309    0.0000 </r>
       <r>    6.3934    0.0000 </r>
       <r>    7.2580    0.0000 </r>
       <r>    7.4052    0.0000 </r>
       <r>    7.4159    0.0000 </r>
       <r>    7.9228    0.0000 </r>
       <r>    8.1115    0.0000 </r>
      </set>
      <set comment="kpoint 2">
       <r>  -41.3776    1.0000 </r>
       <r>  -41.3776    1.0000 </r>
       <r>  -40.5889    1.0000 </r>
       <r>  -40.5885    1.0000 </r>
       <r>  -40.5880    1.0000 </r>
       <r>  -40.5876    1.0000 </r>
       <r>  -12.6029    1.0000 </r>
       <r>  -12.5191    1.0000 </r>
       <r>   -9.5692    1.0000 </r>
       <r>   -9.5230    1.0000 </r>
       <r>   -9.5225    1.0000 </r>
       <r>   -9.4258    1.0000 </r>
       <r>   -9.2901    1.0000 </r>
       <r>   -9.1803    1.0000 </r>
       <r>   -5.4807    1.0000 </r>
       <r>   -5.1543    1.0000 </r>
       <r>   -2.6944    1.0000 </r>
       <r>   -2.6759    1.0000 </r>
       <r>   -2.5033    1.0000 </r>
       <r>   -2.3190    1.0000 </r>
       <r>   -2.1567    1.0000 </r>
       <r>   -2.1003    1.0000 </r>
       <r>   -0.0713    1.0000 </r>
       <r>   -0.0225    1.0000 </r>
       <r>    0.3005    1.0000 </r>
       <r>    0.4800    1.0000 </r>
       <r>    0.4847    1.0000 </r>
       <r>    0.7218    1.0000 </r>
       <r>    0.9212    1.0000 </r>
       <r>    1.0195    1.0000 </r>
       <r>    1.2939    1.0000 </r>
       <r>    1.4300    1.0000 </r>
       <r>    1.5703    1.0000 </r>
       <r>    1.6290    1.0000 </r>
       <r>    1.6644    1.0000 </r>
       <r>    1.8552    1.0000 </r>
       <r>    1.8828    1.0000 </r>
       <r>    1.9683    1.0000 </r>
       <r>    6.0194    0.0000 </r>
       <r>    6.0325    0.0000 </r>
       <r>    6.2881    0.0000 </r>
       <r>    6.3756    0.0000 </r>
       <r>    6.6597    0.0000 </r>
       <r>    6.8528    0.0000 </r>
       <r>    7.2788    0.0000 </r>
       <r>    7.3402    0.0000 </r>
       <r>    8.1688    0.0000 </r>
       <r>    8.6337    0.0000 </r>
      </set>
      <set comment="kpoint 3">
       <r>  -41.3776    1.0000 </r>
       <r>  -41.3776    1.0000 </r>
       <r>  -40.5891    1.0000 </r>
       <r>  -40.5883    1.0000 </r>
       <r>  -40.5882    1.0000 </r>
       <r>  -40.5873    1.0000 </r>
       <r>  -12.5880    1.0000 </r>
       <r>  -12.4879    1.0000 </r>
       <r>   -9.7438    1.0000 </r>
       <r>   -9.5224    1.0000 </r>
       <r>   -9.5151    1.0000 </r>
       <r>   -9.3841    1.0000 </r>
       <r>   -9.3189    1.0000 </r>
       <r>   -9.1983    1.0000 </r>
       <r>   -5.4237    1.0000 </r>
       <r>   -5.0767    1.0000 </r>
       <r>   -2.6668    1.0000 </r>
       <r>   -2.4046    1.0000 </r>
       <r>   -2.3214    1.0000 </r>
       <r>   -2.2770    1.0000 </r>
       <r>   -2.1571    1.0000 </r>
       <r>   -2.1202    1.0000 </r>
       <r>   -0.1168    1.0000 </r>
       <r>    0.0195    1.0000 </r>
       <r>    0.0587    1.0000 </r>
       <r>    0.2141    1.0000 </r>
       <r>    0.3201    1.0000 </r>
       <r>    0.6801    1.0000 </r>
       <r>    0.9109    1.0000 </r>
       <r>    0.9689    1.0000 </r>
       <r>    1.1461    1.0000 </r>
       <r>    1.5240    1.0000 </r>
       <r>    1.5628    1.0000 </r>
       <r>    1.6475    1.0000 </r>
       <r>    1.7504    1.0000 </r>
       <r>    1.8034    1.0000 </r>
       <r>    2.1706    1.0000 </r>
       <r>    2.1940    1.0000 </r>
       <r>    5.1082    0.0000 </r>
       <r>    5.9605    0.0000 </r>
       <r>    6.2609    0.0000 </r>
       <r>    6.5273    0.0000 </r>
       <r>    6.7087    0.0000 </r>
       <r>    7.1682    0.0000 </r>
       <r>    7.2181    0.0000 </r>
       <r>    7.2198    0.0000 </r>
       <r>    8.0409    0.0000 </r>
       <r>    8.6218    0.0000 </r>
      </set>
      <set comment="kpoint 4">
       <r>  -41.3776    1.0000 </r>
       <r>  -41.3776    1.0000 </r>
       <r>  -40.5889    1.0000 </r>
       <r>  -40.5885    1.0000 </r>
       <r>  -40.5880    1.0000 </r>
       <r>  -40.5876    1.0000 </r>
       <r>  -12.5627    1.0000 </r>
       <r>  -12.5125    1.0000 </r>
       <r>   -9.7326    1.0000 </r>
       <r>   -9.6501    1.0000 </r>
       <r>   -9.4245    1.0000 </r>
       <r>   -9.3869    1.0000 </r>
       <r>   -9.2768    1.0000 </r>
       <r>   -9.2179    1.0000 </r>
       <r>   -5.3076    1.0000 </r>
       <r>   -5.1334    1.0000 </r>
       <r>   -2.6460    1.0000 </r>
       <r>   -2.5163    1.0000 </r>
       <r>   -2.3505    1.0000 </r>
       <r>   -2.2679    1.0000 </r>
       <r>   -2.1336    1.0000 </r>
       <r>   -2.1106    1.0000 </r>
       <r>   -0.1704    1.0000 </r>
       <r>   -0.1204    1.0000 </r>
       <r>    0.0272    1.0000 </r>
       <r>    0.2995    1.0000 </r>
       <r>    0.5281    1.0000 </r>
       <r>    0.7408    1.0000 </r>
       <r>    0.9494    1.0000 </r>
       <r>    1.0007    1.0000 </r>
       <r>    1.1310    1.0000 </r>
       <r>    1.3700    1.0000 </r>
       <r>    1.4039    1.0000 </r>
       <r>    1.5700    1.0000 </r>
       <r>    1.7428    1.0000 </r>
       <r>    1.9107    1.0000 </r>
       <r>    2.1017    1.0000 </r>
       <r>    2.1332    1.0000 </r>
       <r>    5.5518    0.0000 </r>
       <r>    6.0110    0.0000 </r>
       <r>    6.4199    0.0000 </r>
       <r>    6.6438    0.0000 </r>
       <r>    6.7941    0.0000 </r>
       <r>    7.0307    0.0000 </r>
       <r>    7.0560    0.0000 </r>
       <r>    7.3112    0.0000 </r>
       <r>    8.3033    0.0000 </r>
       <r>    8.6756    0.0000 </r>
      </set>
      <set comment="kpoint 5">
       <r>  -41.3777    1.0000 </r>
       <r>  -41.3776    1.0000 </r>
       <r>  -40.5889    1.0000 </r>
       <r>  -40.5885    1.0000 </r>
       <r>  -40.5880    1.0000 </r>
       <r>  -40.5876    1.0000 </r>
       <r>  -12.5772    1.0000 </r>
       <r>  -12.4908    1.0000 </r>
       <r>   -9.5664    1.0000 </r>
       <r>   -9.5291    1.0000 </r>
       <r>   -9.5002    1.0000 </r>
       <r>   -9.4301    1.0000 </r>
       <r>   -9.4019    1.0000 </r>
       <r>   -9.3099    1.0000 </r>
       <r>   -5.4631    1.0000 </r>
       <r>   -5.1131    1.0000 </r>
       <r>   -2.5322    1.0000 </r>
       <r>   -2.4301    1.0000 </r>
       <r>   -2.2206    1.0000 </r>
       <r>   -2.1951    1.0000 </r>
       <r>   -2.1390    1.0000 </r>
       <r>   -1.9888    1.0000 </r>
       <r>   -0.1999    1.0000 </r>
       <r>   -0.1162    1.0000 </r>
       <r>   -0.0188    1.0000 </r>
       <r>    0.0350    1.0000 </r>
       <r>    0.5103    1.0000 </r>
       <r>    0.8483    1.0000 </r>
       <r>    0.8688    1.0000 </r>
       <r>    1.0577    1.0000 </r>
       <r>    1.1812    1.0000 </r>
       <r>    1.4842    1.0000 </r>
       <r>    1.5283    1.0000 </r>
       <r>    1.6378    1.0000 </r>
       <r>    1.7899    1.0000 </r>
       <r>    1.9305    1.0000 </r>
       <r>    1.9903    1.0000 </r>
       <r>    2.1091    1.0000 </r>
       <r>    5.3257    0.0000 </r>
       <r>    5.6489    0.0000 </r>
       <r>    5.9624    0.0000 </r>
       <r>    6.6439    0.0000 </r>
       <r>    6.8108    0.0000 </r>
       <r>    6.8663    0.0000 </r>
       <r>    7.1452    0.0000 </r>
       <r>    7.3416    0.0000 </r>
       <r>    8.2851    0.0000 </r>
       <r>    8.4752    0.0000 </r>
      </set>
      <set comment="kpoint 6">
       <r>  -41.3776    1.0000 </r>
       <r>  -41.3776    1.0000 </r>
       <r>  -40.5887    1.0000 </r>
       <r>  -40.5883    1.0000 </r>
       <r>  -40.5882    1.0000 </r>
       <r>  -40.5878    1.0000 </r>
       <r>  -12.5550    1.0000 </r>
       <r>  -12.5118    1.0000 </r>
       <r>   -9.5800    1.0000 </r>
       <r>   -9.5516    1.0000 </r>
       <r>   -9.5294    1.0000 </r>
       <r>   -9.4846    1.0000 </r>
       <r>   -9.3254    1.0000 </r>
       <r>   -9.2711    1.0000 </r>
       <r>   -5.3538    1.0000 </r>
       <r>   -5.1782    1.0000 </r>
       <r>   -2.5349    1.0000 </r>
       <r>   -2.4766    1.0000 </r>
       <r>   -2.2419    1.0000 </r>
       <r>   -2.2193    1.0000 </r>
       <r>   -2.0832    1.0000 </r>
       <r>   -2.0028    1.0000 </r>
       <r>   -0.1618    1.0000 </r>
       <r>   -0.0932    1.0000 </r>
       <r>    0.1185    1.0000 </r>
       <r>    0.1838    1.0000 </r>
       <r>    0.2805    1.0000 </r>
       <r>    0.5701    1.0000 </r>
       <r>    0.9640    1.0000 </r>
       <r>    0.9954    1.0000 </r>
       <r>    1.2449    1.0000 </r>
       <r>    1.2515    1.0000 </r>
       <r>    1.5556    1.0000 </r>
       <r>    1.6779    1.0000 </r>
       <r>    1.8083    1.0000 </r>
       <r>    1.9575    1.0000 </r>
       <r>    1.9613    1.0000 </r>
       <r>    2.0368    1.0000 </r>
       <r>    5.6220    0.0000 </r>
       <r>    5.8782    0.0000 </r>
       <r>    6.4369    0.0000 </r>
       <r>    6.5751    0.0000 </r>
       <r>    6.8444    0.0000 </r>
       <r>    6.9197    0.0000 </r>
       <r>    7.1574    0.0000 </r>
       <r>    7.4195    0.0000 </r>
       <r>    8.2728    0.0000 </r>
       <r>    8.5987    0.0000 </r>
      </set>
      <set comment="kpoint 7">
       <r>  -41.3777    1.0000 </r>
       <r>  -41.3776    1.0000 </r>
       <r>  -40.5889    1.0000 </r>
       <r>  -40.5885    1.0000 </r>
       <r>  -40.5880    1.0000 </r>
       <r>  -40.5876    1.0000 </r>
       <r>  -12.5369    1.0000 </r>
       <r>  -12.4853    1.0000 </r>
       <r>   -9.7035    1.0000 </r>
       <r>   -9.5842    1.0000 </r>
       <r>   -9.4827    1.0000 </r>
       <r>   -9.4172    1.0000 </r>
       <r>   -9.3937    1.0000 </r>
       <r>   -9.3323    1.0000 </r>
       <r>   -5.2947    1.0000 </r>
       <r>   -5.1091    1.0000 </r>
       <r>   -2.3339    1.0000 </r>
       <r>   -2.2884    1.0000 </r>
       <r>   -2.2128    1.0000 </r>
       <r>   -2.2056    1.0000 </r>
       <r>   -2.1312    1.0000 </r>
       <r>   -2.0034    1.0000 </r>
       <r>   -0.1549    1.0000 </r>
       <r>   -0.0185    1.0000 </r>
       <r>    0.0611    1.0000 </r>
       <r>    0.1745    1.0000 </r>
       <r>    0.3266    1.0000 </r>
       <r>    0.6439    1.0000 </r>
       <r>    0.8058    1.0000 </r>
       <r>    0.9583    1.0000 </r>
       <r>    1.1658    1.0000 </r>
       <r>    1.2222    1.0000 </r>
       <r>    1.5779    1.0000 </r>
       <r>    1.6580    1.0000 </r>
       <r>    1.7701    1.0000 </r>
       <r>    1.9254    1.0000 </r>
       <r>    2.0154    1.0000 </r>
       <r>    2.0384    1.0000 </r>
       <r>    5.0626    0.0000 </r>
       <r>    5.3803    0.0000 </r>
       <r>    6.3325    0.0000 </r>
       <r>    6.5476    0.0000 </r>
       <r>    6.7674    0.0000 </r>
       <r>    6.7903    0.0000 </r>
       <r>    7.0009    0.0000 </r>
       <r>    7.0082    0.0000 </r>
       <r>    8.1043    0.0000 </r>
       <r>    8.6997    0.0000 </r>
      </set>
      <set comment="kpoint 8">
       <r>  -41.3776    1.0000 </r>
       <r>  -41.3776    1.0000 </r>
       <r>  -40.5887    1.0000 </r>
       <r>  -40.5883    1.0000 </r>
       <r>  -40.5882    1.0000 </r>
       <r>  -40.5878    1.0000 </r>
       <r>  -12.5232    1.0000 </r>
       <r>  -12.4973    1.0000 </r>
       <r>   -9.6828    1.0000 </r>
       <r>   -9.6232    1.0000 </r>
       <r>   -9.4921    1.0000 </r>
       <r>   -9.4495    1.0000 </r>
       <r>   -9.3522    1.0000 </r>
       <r>   -9.3290    1.0000 </r>
       <r>   -5.2035    1.0000 </r>
       <r>   -5.1099    1.0000 </r>
       <r>   -2.4329    1.0000 </r>
       <r>   -2.3834    1.0000 </r>
       <r>   -2.1834    1.0000 </r>
       <r>   -2.1626    1.0000 </r>
       <r>   -2.0239    1.0000 </r>
       <r>   -1.9663    1.0000 </r>
       <r>   -0.2754    1.0000 </r>
       <r>   -0.2005    1.0000 </r>
       <r>   -0.0956    1.0000 </r>
       <r>    0.1174    1.0000 </r>
       <r>    0.5048    1.0000 </r>
       <r>    0.6056    1.0000 </r>
       <r>    0.8389    1.0000 </r>
       <r>    0.9824    1.0000 </r>
       <r>    1.0498    1.0000 </r>
       <r>    1.1749    1.0000 </r>
       <r>    1.5977    1.0000 </r>
       <r>    1.6684    1.0000 </r>
       <r>    1.7671    1.0000 </r>
       <r>    1.8988    1.0000 </r>
       <r>    2.0855    1.0000 </r>
       <r>    2.1863    1.0000 </r>
       <r>    5.3489    0.0000 </r>
       <r>    5.6288    0.0000 </r>
       <r>    6.4653    0.0000 </r>
       <r>    6.5635    0.0000 </r>
       <r>    6.7866    0.0000 </r>
       <r>    6.9190    0.0000 </r>
       <r>    7.0805    0.0000 </r>
       <r>    7.2480    0.0000 </r>
       <r>    8.2223    0.0000 </r>
       <r>    8.6132    0.0000 </r>
      </set>
     </set>
    </set>
   </array>
  </eigenvalues>
  <separator name="orbital magnetization" >
   <v name="MAGDIPOLOUT">      0.00000000      0.00000000      0.00000000</v>
  </separator>
  <dos>
   <i name="efermi">      2.25222016 </i>
   <total>
    <array>
     <dimension dim="1">gridpoints</dimension>
     <dimension dim="2">spin</dimension>
     <field>energy</field>
     <field>total</field>
     <field>integrated</field>
     <set>
      <set comment="spin 1">
       <r>   -43.8815     0.0000     0.0000 </r>
       <r>   -43.6979     0.0000     0.0000 </r>
       <r>   -43.5143     0.0000     0.0000 </r>
       <r>   -43.3307     0.0000     0.0000 </r>
       <r>   -43.1471     0.0000     0.0000 </r>
       <r>   -42.9634     0.0000     0.0000 </r>
       <r>   -42.7798     0.0000     0.0000 </r>
       <r>   -42.5962     0.0000     0.0000 </r>
       <r>   -42.4126     0.0000     0.0000 </r>
       <r>   -42.2290     0.0000     0.0000 </r>
       <r>   -42.0454     0.0000     0.0000 </r>
       <r>   -41.8617     0.0000     0.0000 </r>
       <r>   -41.6781     0.0000     0.0000 </r>
       <r>   -41.4945     0.0000     0.0000 </r>
       <r>   -41.3109     0.0000     4.0000 </r>
       <r>   -41.1273     0.0000     4.0000 </r>
       <r>   -40.9437     0.0000     4.0000 </r>
       <r>   -40.7600     0.0000     4.0000 </r>
       <r>   -40.5764     0.0000    12.0000 </r>
       <r>   -40.3928     0.0000    12.0000 </r>
       <r>   -40.2092     0.0000    12.0000 </r>
       <r>   -40.0256     0.0000    12.0000 </r>
       <r>   -39.8420     0.0000    12.0000 </r>
       <r>   -39.6583     0.0000    12.0000 </r>
       <r>   -39.4747     0.0000    12.0000 </r>
       <r>   -39.2911     0.0000    12.0000 </r>
       <r>   -39.1075     0.0000    12.0000 </r>
       <r>   -38.9239     0.0000    12.0000 </r>
       <r>   -38.7403     0.0000    12.0000 </r>
       <r>   -38.5566     0.0000    12.0000 </r>
       <r>   -38.3730     0.0000    12.0000 </r>
       <r>   -38.1894     0.0000    12.0000 </r>
       <r>   -38.0058     0.0000    12.0000 </r>
       <r>   -37.8222     0.0000    12.0000 </r>
       <r>   -37.6386     0.0000    12.0000 </r>
       <r>   -37.4549     0.0000    12.0000 </r>
       <r>   -37.2713     0.0000    12.0000 </r>
       <r>   -37.0877     0.0000    12.0000 </r>
       <r>   -36.9041     0.0000    12.0000 </r>
       <r>   -36.7205     0.0000    12.0000 </r>
       <r>   -36.5369     0.0000    12.0000 </r>
       <r>   -36.3532     0.0000    12.0000 </r>
       <r>   -36.1696     0.0000    12.0000 </r>
       <r>   -35.9860     0.0000    12.0000 </r>
       <r>   -35.8024     0.0000    12.0000 </r>
       <r>   -35.6188     0.0000    12.0000 </r>
       <r>   -35.4352     0.0000    12.0000 </r>
       <r>   -35.2515     0.0000    12.0000 </r>
       <r>   -35.0679     0.0000    12.0000 </r>
       <r>   -34.8843     0.0000    12.0000 </r>
       <r>   -34.7007     0.0000    12.0000 </r>
       <r>   -34.5171     0.0000    12.0000 </r>
       <r>   -34.3335     0.0000    12.0000 </r>
       <r>   -34.1498     0.0000    12.0000 </r>
       <r>   -33.9662     0.0000    12.0000 </r>
       <r>   -33.7826     0.0000    12.0000 </r>
       <r>   -33.5990     0.0000    12.0000 </r>
       <r>   -33.4154     0.0000    12.0000 </r>
       <r>   -33.2317     0.0000    12.0000 </r>
       <r>   -33.0481     0.0000    12.0000 </r>
       <r>   -32.8645     0.0000    12.0000 </r>
       <r>   -32.6809     0.0000    12.0000 </r>
       <r>   -32.4973     0.0000    12.0000 </r>
       <r>   -32.3137     0.0000    12.0000 </r>
       <r>   -32.1300     0.0000    12.0000 </r>
       <r>   -31.9464     0.0000    12.0000 </r>
       <r>   -31.7628     0.0000    12.0000 </r>
       <r>   -31.5792     0.0000    12.0000 </r>
       <r>   -31.3956     0.0000    12.0000 </r>
       <r>   -31.2120     0.0000    12.0000 </r>
       <r>   -31.0283     0.0000    12.0000 </r>
       <r>   -30.8447     0.0000    12.0000 </r>
       <r>   -30.6611     0.0000    12.0000 </r>
       <r>   -30.4775     0.0000    12.0000 </r>
       <r>   -30.2939     0.0000    12.0000 </r>
       <r>   -30.1103     0.0000    12.0000 </r>
       <r>   -29.9266     0.0000    12.0000 </r>
       <r>   -29.7430     0.0000    12.0000 </r>
       <r>   -29.5594     0.0000    12.0000 </r>
       <r>   -29.3758     0.0000    12.0000 </r>
       <r>   -29.1922     0.0000    12.0000 </r>
       <r>   -29.0086     0.0000    12.0000 </r>
       <r>   -28.8249     0.0000    12.0000 </r>
       <r>   -28.6413     0.0000    12.0000 </r>
       <r>   -28.4577     0.0000    12.0000 </r>
       <r>   -28.2741     0.0000    12.0000 </r>
       <r>   -28.0905     0.0000    12.0000 </r>
       <r>   -27.9069     0.0000    12.0000 </r>
       <r>   -27.7232     0.0000    12.0000 </r>
       <r>   -27.5396     0.0000    12.0000 </r>
       <r>   -27.3560     0.0000    12.0000 </r>
       <r>   -27.1724     0.0000    12.0000 </r>
       <r>   -26.9888     0.0000    12.0000 </r>
       <r>   -26.8052     0.0000    12.0000 </r>
       <r>   -26.6215     0.0000    12.0000 </r>
       <r>   -26.4379     0.0000    12.0000 </r>
       <r>   -26.2543     0.0000    12.0000 </r>
       <r>   -26.0707     0.0000    12.0000 </r>
       <r>   -25.8871     0.0000    12.0000 </r>
       <r>   -25.7035     0.0000    12.0000 </r>
       <r>   -25.5198     0.0000    12.0000 </r>
       <r>   -25.3362     0.0000    12.0000 </r>
       <r>   -25.1526     0.0000    12.0000 </r>
       <r>   -24.9690     0.0000    12.0000 </r>
       <r>   -24.7854     0.0000    12.0000 </r>
       <r>   -24.6018     0.0000    12.0000 </r>
       <r>   -24.4181     0.0000    12.0000 </r>
       <r>   -24.2345     0.0000    12.0000 </r>
       <r>   -24.0509     0.0000    12.0000 </r>
       <r>   -23.8673     0.0000    12.0000 </r>
       <r>   -23.6837     0.0000    12.0000 </r>
       <r>   -23.5001     0.0000    12.0000 </r>
       <r>   -23.3164     0.0000    12.0000 </r>
       <r>   -23.1328     0.0000    12.0000 </r>
       <r>   -22.9492     0.0000    12.0000 </r>
       <r>   -22.7656     0.0000    12.0000 </r>
       <r>   -22.5820     0.0000    12.0000 </r>
       <r>   -22.3984     0.0000    12.0000 </r>
       <r>   -22.2147     0.0000    12.0000 </r>
       <r>   -22.0311     0.0000    12.0000 </r>
       <r>   -21.8475     0.0000    12.0000 </r>
       <r>   -21.6639     0.0000    12.0000 </r>
       <r>   -21.4803     0.0000    12.0000 </r>
       <r>   -21.2966     0.0000    12.0000 </r>
       <r>   -21.1130     0.0000    12.0000 </r>
       <r>   -20.9294     0.0000    12.0000 </r>
       <r>   -20.7458     0.0000    12.0000 </r>
       <r>   -20.5622     0.0000    12.0000 </r>
       <r>   -20.3786     0.0000    12.0000 </r>
       <r>   -20.1949     0.0000    12.0000 </r>
       <r>   -20.0113     0.0000    12.0000 </r>
       <r>   -19.8277     0.0000    12.0000 </r>
       <r>   -19.6441     0.0000    12.0000 </r>
       <r>   -19.4605     0.0000    12.0000 </r>
       <r>   -19.2769     0.0000    12.0000 </r>
       <r>   -19.0932     0.0000    12.0000 </r>
       <r>   -18.9096     0.0000    12.0000 </r>
       <r>   -18.7260     0.0000    12.0000 </r>
       <r>   -18.5424     0.0000    12.0000 </r>
       <r>   -18.3588     0.0000    12.0000 </r>
       <r>   -18.1752     0.0000    12.0000 </r>
       <r>   -17.9915     0.0000    12.0000 </r>
       <r>   -17.8079     0.0000    12.0000 </r>
       <r>   -17.6243     0.0000    12.0000 </r>
       <r>   -17.4407     0.0000    12.0000 </r>
       <r>   -17.2571     0.0000    12.0000 </r>
       <r>   -17.0735     0.0000    12.0000 </r>
       <r>   -16.8898     0.0000    12.0000 </r>
       <r>   -16.7062     0.0000    12.0000 </r>
       <r>   -16.5226     0.0000    12.0000 </r>
       <r>   -16.3390     0.0000    12.0000 </r>
       <r>   -16.1554     0.0000    12.0000 </r>
       <r>   -15.9718     0.0000    12.0000 </r>
       <r>   -15.7881     0.0000    12.0000 </r>
       <r>   -15.6045     0.0000    12.0000 </r>
       <r>   -15.4209     0.0000    12.0000 </r>
       <r>   -15.2373     0.0000    12.0000 </r>
       <r>   -15.0537     0.0000    12.0000 </r>
       <r>   -14.8701     0.0000    12.0000 </r>
       <r>   -14.6864     0.0000    12.0000 </r>
       <r>   -14.5028     0.0000    12.0000 </r>
       <r>   -14.3192     0.0000    12.0000 </r>
       <r>   -14.1356     0.0000    12.0000 </r>
       <r>   -13.9520     0.0000    12.0000 </r>
       <r>   -13.7684     0.0000    12.0000 </r>
       <r>   -13.5847     0.0000    12.0000 </r>
       <r>   -13.4011     0.0000    12.0000 </r>
       <r>   -13.2175     0.0000    12.0000 </r>
       <r>   -13.0339     0.0000    12.0000 </r>
       <r>   -12.8503     0.0000    12.0000 </r>
       <r>   -12.6667     0.0000    12.0000 </r>
       <r>   -12.4830     6.9252    15.9826 </r>
       <r>   -12.2994     0.0000    16.0000 </r>
       <r>   -12.1158     0.0000    16.0000 </r>
       <r>   -11.9322     0.0000    16.0000 </r>
       <r>   -11.7486     0.0000    16.0000 </r>
       <r>   -11.5650     0.0000    16.0000 </r>
       <r>   -11.3813     0.0000    16.0000 </r>
       <r>   -11.1977     0.0000    16.0000 </r>
       <r>   -11.0141     0.0000    16.0000 </r>
       <r>   -10.8305     0.0000    16.0000 </r>
       <r>   -10.6469     0.0000    16.0000 </r>
       <r>   -10.4633     0.0000    16.0000 </r>
       <r>   -10.2796     0.0000    16.0000 </r>
       <r>   -10.0960     0.0000    16.0000 </r>
       <r>    -9.9124     0.0000    16.0000 </r>
       <r>    -9.7288    10.7591    16.0801 </r>
       <r>    -9.5452    17.0852    19.7875 </r>
       <r>    -9.3616    17.7004    24.4640 </r>
       <r>    -9.1779     1.5474    27.9816 </r>
       <r>    -8.9943     0.0000    28.0000 </r>
       <r>    -8.8107     0.0000    28.0000 </r>
       <r>    -8.6271     0.0000    28.0000 </r>
       <r>    -8.4435     0.0000    28.0000 </r>
       <r>    -8.2598     0.0000    28.0000 </r>
       <r>    -8.0762     0.0000    28.0000 </r>
       <r>    -7.8926     0.0000    28.0000 </r>
       <r>    -7.7090     0.0000    28.0000 </r>
       <r>    -7.5254     0.0000    28.0000 </r>
       <r>    -7.3418     0.0000    28.0000 </r>
       <r>    -7.1581     0.0000    28.0000 </r>
       <r>    -6.9745     0.0000    28.0000 </r>
       <r>    -6.7909     0.0000    28.0000 </r>
       <r>    -6.6073     0.0000    28.0000 </r>
       <r>    -6.4237     0.0000    28.0000 </r>
       <r>    -6.2401     0.0000    28.0000 </r>
       <r>    -6.0564     0.0000    28.0000 </r>
       <r>    -5.8728     0.0000    28.0000 </r>
       <r>    -5.6892     0.0000    28.0000 </r>
       <r>    -5.5056     1.1058    28.0587 </r>
       <r>    -5.3220     9.0884    28.9652 </r>
       <r>    -5.1384    18.7773    30.4403 </r>
       <r>    -4.9547     0.0000    32.0000 </r>
       <r>    -4.7711     0.0000    32.0000 </r>
       <r>    -4.5875     0.0000    32.0000 </r>
       <r>    -4.4039     0.0000    32.0000 </r>
       <r>    -4.2203     0.0000    32.0000 </r>
       <r>    -4.0367     0.0000    32.0000 </r>
       <r>    -3.8530     0.0000    32.0000 </r>
       <r>    -3.6694     0.0000    32.0000 </r>
       <r>    -3.4858     0.0000    32.0000 </r>
       <r>    -3.3022     0.0000    32.0000 </r>
       <r>    -3.1186     0.0000    32.0000 </r>
       <r>    -2.9350     0.0000    32.0000 </r>
       <r>    -2.7513     0.0000    32.0000 </r>
       <r>    -2.5677     8.9415    32.7221 </r>
       <r>    -2.3841    15.2516    35.5790 </r>
       <r>    -2.2005    40.9690    39.0471 </r>
       <r>    -2.0169    10.5699    43.0048 </r>
       <r>    -1.8333     0.0000    44.0000 </r>
       <r>    -1.6496     0.0000    44.0000 </r>
       <r>    -1.4660     0.0000    44.0000 </r>
       <r>    -1.2824     0.0000    44.0000 </r>
       <r>    -1.0988     0.0000    44.0000 </r>
       <r>    -0.9152     0.0000    44.0000 </r>
       <r>    -0.7316     0.0000    44.0000 </r>
       <r>    -0.5479     0.0000    44.0000 </r>
       <r>    -0.3643     0.0000    44.0000 </r>
       <r>    -0.1807    22.8175    45.1722 </r>
       <r>     0.0029    13.2526    48.5974 </r>
       <r>     0.1865    10.6042    51.0046 </r>
       <r>     0.3701     9.7183    52.3716 </r>
       <r>     0.5538     0.6410    54.0119 </r>
       <r>     0.7374     4.8818    55.9260 </r>
       <r>     0.9210    12.7833    57.6177 </r>
       <r>     1.1046     9.7419    60.4380 </r>
       <r>     1.2882     7.8620    62.9205 </r>
       <r>     1.4718     5.8484    64.0211 </r>
       <r>     1.6555    33.8609    66.9108 </r>
       <r>     1.8391     2.3156    70.0357 </r>
       <r>     2.0227    16.6337    72.8050 </r>
       <r>     2.2063     0.0000    76.0000 </r>
       <r>     2.3899     0.0000    76.0000 </r>
       <r>     2.5735     0.0000    76.0000 </r>
       <r>     2.7572     0.0000    76.0000 </r>
       <r>     2.9408     0.0000    76.0000 </r>
       <r>     3.1244     0.0000    76.0000 </r>
       <r>     3.3080     0.0000    76.0000 </r>
       <r>     3.4916     0.0000    76.0000 </r>
       <r>     3.6753     0.0000    76.0000 </r>
       <r>     3.8589     0.0000    76.0000 </r>
       <r>     4.0425     0.0000    76.0000 </r>
       <r>     4.2261     0.0000    76.0000 </r>
       <r>     4.4097     0.0000    76.0000 </r>
       <r>     4.5933     0.0000    76.0000 </r>
       <r>     4.7770     0.0000    76.0000 </r>
       <r>     4.9606     0.0000    76.0000 </r>
       <r>     5.1442     1.9733    76.1148 </r>
       <r>     5.3278     3.3602    76.6085 </r>
       <r>     5.5114     5.4760    77.5566 </r>
       <r>     5.6950     5.1070    78.5749 </r>
       <r>     5.8787     4.2047    79.4875 </r>
       <r>     6.0623     0.7307    80.0319 </r>
       <r>     6.2459     2.3183    80.3110 </r>
       <r>     6.4295    14.0182    81.5595 </r>
       <r>     6.6131     9.5078    83.9054 </r>
       <r>     6.7967    17.9326    85.5498 </r>
       <r>     6.9804     6.0926    87.4989 </r>
       <r>     7.1640     9.4239    89.8606 </r>
       <r>     7.3476     8.9475    91.6666 </r>
       <r>     7.5312     0.0000    92.0000 </r>
       <r>     7.7148     0.0000    92.0000 </r>
       <r>     7.8984     0.0000    92.0000 </r>
       <r>     8.0821     2.5775    92.1082 </r>
       <r>     8.2657    14.1502    93.7468 </r>
       <r>     8.4493     0.8597    94.0968 </r>
       <r>     8.6329    20.6605    95.2317 </r>
       <r>     8.8165     0.0000    96.0000 </r>
       <r>     9.0001     0.0000    96.0000 </r>
       <r>     9.1838     0.0000    96.0000 </r>
       <r>     9.3674     0.0000    96.0000 </r>
       <r>     9.5510     0.0000    96.0000 </r>
       <r>     9.7346     0.0000    96.0000 </r>
       <r>     9.9182     0.0000    96.0000 </r>
       <r>    10.1018     0.0000    96.0000 </r>
       <r>    10.2855     0.0000    96.0000 </r>
       <r>    10.4691     0.0000    96.0000 </r>
       <r>    10.6527     0.0000    96.0000 </r>
       <r>    10.8363     0.0000    96.0000 </r>
       <r>    11.0199     0.0000    96.0000 </r>
       <r>    11.2035     0.0000    96.0000 </r>
      </set>
     </set>
    </array>
   </total>
  </dos>
 </calculation>
 <structure name="finalpos" >
  <crystal>
   <varray name="basis" >
    <v>       7.66716623       0.00000000       0.00000000 </v>
    <v>       0.00000000       6.22220380       0.00000000 </v>
    <v>       0.00000000       0.00000000       6.03207693 </v>
   </varray>
   <i name="volume">    287.77030882 </i>
   <varray name="rec_basis" >
    <v>       0.13042628       0.00000000       0.00000000 </v>
    <v>       0.00000000       0.16071476       0.00000000 </v>
    <v>       0.00000000       0.00000000       0.16578038 </v>
   </varray>
  </crystal>
  <varray name="positions" >
   <v>       0.00000000       0.33087992       0.29822498 </v>
   <v>       0.50000000       0.66912008       0.79822498 </v>
   <v>       0.21818844       0.18589048       0.17750938 </v>
   <v>       0.28181156       0.81410952       0.67750938 </v>
   <v>       0.71818844       0.81410952       0.67750938 </v>
   <v>       0.78181156       0.18589048       0.17750938 </v>
   <v>       0.00000000       0.64627368       0.22460790 </v>
   <v>       0.50000000       0.35372632       0.72460790 </v>
   <v>       0.00000000       0.27197485       0.63218855 </v>
   <v>       0.50000000       0.72802515       0.13218855 </v>
   <v>       0.00000000       0.65857407       0.77224511 </v>
   <v>       0.50000000       0.34142593       0.27224511 </v>
   <v>       0.25244900       0.17991949       0.80225911 </v>
   <v>       0.24755100       0.82008051       0.30225911 </v>
   <v>       0.75244900       0.82008051       0.30225911 </v>
   <v>       0.74755100       0.17991949       0.80225911 </v>
  </varray>
 </structure>
</modeling>
