unknown system                          
           1
     7.667166    0.000000    0.000000
     0.000000    6.222204    0.000000
     0.000000    0.000000    6.032077
   P    S    Li
   2   8   6
Direct configuration=     1
   0.00000000  0.33087992  0.29822498
   0.50000000  0.66912008  0.79822498
   0.21818844  0.18589048  0.17750938
   0.28181156  0.81410952  0.67750938
   0.71818844  0.81410952  0.67750938
   0.78181156  0.18589048  0.17750938
   0.00000000  0.64627368  0.22460790
   0.50000000  0.35372632  0.72460790
   0.00000000  0.27197485  0.63218855
   0.50000000  0.72802515  0.13218855
   0.00000000  0.65857407  0.77224511
   0.50000000  0.34142593  0.27224511
   0.25244900  0.17991949  0.80225911
   0.24755100  0.82008051  0.30225911
   0.75244900  0.82008051  0.30225911
   0.74755100  0.17991949  0.80225911
