  16  16   0   0
  0.1766499E+02  0.7777663E-09  0.6132636E-09  0.5925665E-09  0.5000000E-15
  1.000000000000000E-004
  CAR 
 unknown system                          
     11.21769415    -43.88399522  301      2.81468652      1.00000000
    -43.884  0.0000E+00  0.0000E+00
    -43.700  0.0000E+00  0.0000E+00
    -43.517  0.0000E+00  0.0000E+00
    -43.333  0.0000E+00  0.0000E+00
    -43.149  0.0000E+00  0.0000E+00
    -42.966  0.0000E+00  0.0000E+00
    -42.782  0.0000E+00  0.0000E+00
    -42.598  0.0000E+00  0.0000E+00
    -42.415  0.0000E+00  0.0000E+00
    -42.231  0.0000E+00  0.0000E+00
    -42.047  0.0000E+00  0.0000E+00
    -41.864  0.0000E+00  0.0000E+00
    -41.680  0.0000E+00  0.0000E+00
    -41.496  0.0000E+00  0.0000E+00
    -41.313  0.0000E+00  0.4000E-01
    -41.129  0.0000E+00  0.4000E-01
    -40.945  0.0000E+00  0.4000E-01
    -40.762  0.0000E+00  0.4000E-01
    -40.578  0.0000E+00  0.1200E+00
    -40.394  0.0000E+00  0.1200E+00
    -40.211  0.0000E+00  0.1200E+00
    -40.027  0.0000E+00  0.1200E+00
    -39.843  0.0000E+00  0.1200E+00
    -39.660  0.0000E+00  0.1200E+00
    -39.476  0.0000E+00  0.1200E+00
    -39.292  0.0000E+00  0.1200E+00
    -39.109  0.0000E+00  0.1200E+00
    -38.925  0.0000E+00  0.1200E+00
    -38.741  0.0000E+00  0.1200E+00
    -38.557  0.0000E+00  0.1200E+00
    -38.374  0.0000E+00  0.1200E+00
    -38.190  0.0000E+00  0.1200E+00
    -38.006  0.0000E+00  0.1200E+00
    -37.823  0.0000E+00  0.1200E+00
    -37.639  0.0000E+00  0.1200E+00
    -37.455  0.0000E+00  0.1200E+00
    -37.272  0.0000E+00  0.1200E+00
    -37.088  0.0000E+00  0.1200E+00
    -36.904  0.0000E+00  0.1200E+00
    -36.721  0.0000E+00  0.1200E+00
    -36.537  0.0000E+00  0.1200E+00
    -36.353  0.0000E+00  0.1200E+00
    -36.170  0.0000E+00  0.1200E+00
    -35.986  0.0000E+00  0.1200E+00
    -35.802  0.0000E+00  0.1200E+00
    -35.619  0.0000E+00  0.1200E+00
    -35.435  0.0000E+00  0.1200E+00
    -35.251  0.0000E+00  0.1200E+00
    -35.068  0.0000E+00  0.1200E+00
    -34.884  0.0000E+00  0.1200E+00
    -34.700  0.0000E+00  0.1200E+00
    -34.517  0.0000E+00  0.1200E+00
    -34.333  0.0000E+00  0.1200E+00
    -34.149  0.0000E+00  0.1200E+00
    -33.966  0.0000E+00  0.1200E+00
    -33.782  0.0000E+00  0.1200E+00
    -33.598  0.0000E+00  0.1200E+00
    -33.415  0.0000E+00  0.1200E+00
    -33.231  0.0000E+00  0.1200E+00
    -33.047  0.0000E+00  0.1200E+00
    -32.864  0.0000E+00  0.1200E+00
    -32.680  0.0000E+00  0.1200E+00
    -32.496  0.0000E+00  0.1200E+00
    -32.313  0.0000E+00  0.1200E+00
    -32.129  0.0000E+00  0.1200E+00
    -31.945  0.0000E+00  0.1200E+00
    -31.762  0.0000E+00  0.1200E+00
    -31.578  0.0000E+00  0.1200E+00
    -31.394  0.0000E+00  0.1200E+00
    -31.211  0.0000E+00  0.1200E+00
    -31.027  0.0000E+00  0.1200E+00
    -30.843  0.0000E+00  0.1200E+00
    -30.660  0.0000E+00  0.1200E+00
    -30.476  0.0000E+00  0.1200E+00
    -30.292  0.0000E+00  0.1200E+00
    -30.109  0.0000E+00  0.1200E+00
    -29.925  0.0000E+00  0.1200E+00
    -29.741  0.0000E+00  0.1200E+00
    -29.558  0.0000E+00  0.1200E+00
    -29.374  0.0000E+00  0.1200E+00
    -29.190  0.0000E+00  0.1200E+00
    -29.007  0.0000E+00  0.1200E+00
    -28.823  0.0000E+00  0.1200E+00
    -28.639  0.0000E+00  0.1200E+00
    -28.456  0.0000E+00  0.1200E+00
    -28.272  0.0000E+00  0.1200E+00
    -28.088  0.0000E+00  0.1200E+00
    -27.905  0.0000E+00  0.1200E+00
    -27.721  0.0000E+00  0.1200E+00
    -27.537  0.0000E+00  0.1200E+00
    -27.353  0.0000E+00  0.1200E+00
    -27.170  0.0000E+00  0.1200E+00
    -26.986  0.0000E+00  0.1200E+00
    -26.802  0.0000E+00  0.1200E+00
    -26.619  0.0000E+00  0.1200E+00
    -26.435  0.0000E+00  0.1200E+00
    -26.251  0.0000E+00  0.1200E+00
    -26.068  0.0000E+00  0.1200E+00
    -25.884  0.0000E+00  0.1200E+00
    -25.700  0.0000E+00  0.1200E+00
    -25.517  0.0000E+00  0.1200E+00
    -25.333  0.0000E+00  0.1200E+00
    -25.149  0.0000E+00  0.1200E+00
    -24.966  0.0000E+00  0.1200E+00
    -24.782  0.0000E+00  0.1200E+00
    -24.598  0.0000E+00  0.1200E+00
    -24.415  0.0000E+00  0.1200E+00
    -24.231  0.0000E+00  0.1200E+00
    -24.047  0.0000E+00  0.1200E+00
    -23.864  0.0000E+00  0.1200E+00
    -23.680  0.0000E+00  0.1200E+00
    -23.496  0.0000E+00  0.1200E+00
    -23.313  0.0000E+00  0.1200E+00
    -23.129  0.0000E+00  0.1200E+00
    -22.945  0.0000E+00  0.1200E+00
    -22.762  0.0000E+00  0.1200E+00
    -22.578  0.0000E+00  0.1200E+00
    -22.394  0.0000E+00  0.1200E+00
    -22.211  0.0000E+00  0.1200E+00
    -22.027  0.0000E+00  0.1200E+00
    -21.843  0.0000E+00  0.1200E+00
    -21.660  0.0000E+00  0.1200E+00
    -21.476  0.0000E+00  0.1200E+00
    -21.292  0.0000E+00  0.1200E+00
    -21.109  0.0000E+00  0.1200E+00
    -20.925  0.0000E+00  0.1200E+00
    -20.741  0.0000E+00  0.1200E+00
    -20.558  0.0000E+00  0.1200E+00
    -20.374  0.0000E+00  0.1200E+00
    -20.190  0.0000E+00  0.1200E+00
    -20.007  0.0000E+00  0.1200E+00
    -19.823  0.0000E+00  0.1200E+00
    -19.639  0.0000E+00  0.1200E+00
    -19.456  0.0000E+00  0.1200E+00
    -19.272  0.0000E+00  0.1200E+00
    -19.088  0.0000E+00  0.1200E+00
    -18.905  0.0000E+00  0.1200E+00
    -18.721  0.0000E+00  0.1200E+00
    -18.537  0.0000E+00  0.1200E+00
    -18.354  0.0000E+00  0.1200E+00
    -18.170  0.0000E+00  0.1200E+00
    -17.986  0.0000E+00  0.1200E+00
    -17.803  0.0000E+00  0.1200E+00
    -17.619  0.0000E+00  0.1200E+00
    -17.435  0.0000E+00  0.1200E+00
    -17.252  0.0000E+00  0.1200E+00
    -17.068  0.0000E+00  0.1200E+00
    -16.884  0.0000E+00  0.1200E+00
    -16.700  0.0000E+00  0.1200E+00
    -16.517  0.0000E+00  0.1200E+00
    -16.333  0.0000E+00  0.1200E+00
    -16.149  0.0000E+00  0.1200E+00
    -15.966  0.0000E+00  0.1200E+00
    -15.782  0.0000E+00  0.1200E+00
    -15.598  0.0000E+00  0.1200E+00
    -15.415  0.0000E+00  0.1200E+00
    -15.231  0.0000E+00  0.1200E+00
    -15.047  0.0000E+00  0.1200E+00
    -14.864  0.0000E+00  0.1200E+00
    -14.680  0.0000E+00  0.1200E+00
    -14.496  0.0000E+00  0.1200E+00
    -14.313  0.0000E+00  0.1200E+00
    -14.129  0.0000E+00  0.1200E+00
    -13.945  0.0000E+00  0.1200E+00
    -13.762  0.0000E+00  0.1200E+00
    -13.578  0.0000E+00  0.1200E+00
    -13.394  0.0000E+00  0.1200E+00
    -13.211  0.0000E+00  0.1200E+00
    -13.027  0.0000E+00  0.1200E+00
    -12.843  0.0000E+00  0.1200E+00
    -12.660  0.0000E+00  0.1200E+00
    -12.476  0.0000E+00  0.1200E+00
    -12.292  0.1371E+00  0.1306E+00
    -12.109  0.0000E+00  0.1600E+00
    -11.925  0.0000E+00  0.1600E+00
    -11.741  0.0000E+00  0.1600E+00
    -11.558  0.0000E+00  0.1600E+00
    -11.374  0.0000E+00  0.1600E+00
    -11.190  0.0000E+00  0.1600E+00
    -11.007  0.0000E+00  0.1600E+00
    -10.823  0.0000E+00  0.1600E+00
    -10.639  0.0000E+00  0.1600E+00
    -10.456  0.0000E+00  0.1600E+00
    -10.272  0.0000E+00  0.1600E+00
    -10.088  0.0000E+00  0.1600E+00
     -9.905  0.0000E+00  0.1600E+00
     -9.721  0.0000E+00  0.1600E+00
     -9.537  0.0000E+00  0.1600E+00
     -9.354  0.9416E-01  0.1961E+00
     -9.170  0.1926E+00  0.2308E+00
     -8.986  0.1762E+00  0.2697E+00
     -8.803  0.0000E+00  0.2800E+00
     -8.619  0.0000E+00  0.2800E+00
     -8.435  0.0000E+00  0.2800E+00
     -8.252  0.0000E+00  0.2800E+00
     -8.068  0.0000E+00  0.2800E+00
     -7.884  0.0000E+00  0.2800E+00
     -7.701  0.0000E+00  0.2800E+00
     -7.517  0.0000E+00  0.2800E+00
     -7.333  0.0000E+00  0.2800E+00
     -7.150  0.0000E+00  0.2800E+00
     -6.966  0.0000E+00  0.2800E+00
     -6.782  0.0000E+00  0.2800E+00
     -6.599  0.0000E+00  0.2800E+00
     -6.415  0.0000E+00  0.2800E+00
     -6.231  0.0000E+00  0.2800E+00
     -6.048  0.0000E+00  0.2800E+00
     -5.864  0.0000E+00  0.2800E+00
     -5.680  0.0000E+00  0.2800E+00
     -5.496  0.0000E+00  0.2800E+00
     -5.313  0.1696E-01  0.2814E+00
     -5.129  0.4719E-01  0.2878E+00
     -4.945  0.7632E-01  0.2981E+00
     -4.762  0.9934E-01  0.3168E+00
     -4.578  0.0000E+00  0.3200E+00
     -4.394  0.0000E+00  0.3200E+00
     -4.211  0.0000E+00  0.3200E+00
     -4.027  0.0000E+00  0.3200E+00
     -3.843  0.0000E+00  0.3200E+00
     -3.660  0.0000E+00  0.3200E+00
     -3.476  0.0000E+00  0.3200E+00
     -3.292  0.0000E+00  0.3200E+00
     -3.109  0.0000E+00  0.3200E+00
     -2.925  0.0000E+00  0.3200E+00
     -2.741  0.0000E+00  0.3200E+00
     -2.558  0.0000E+00  0.3200E+00
     -2.374  0.8957E-01  0.3313E+00
     -2.190  0.1823E+00  0.3588E+00
     -2.007  0.9977E-01  0.3914E+00
     -1.823  0.1718E+00  0.4114E+00
     -1.639  0.2696E-01  0.4394E+00
     -1.456  0.0000E+00  0.4400E+00
     -1.272  0.0000E+00  0.4400E+00
     -1.088  0.0000E+00  0.4400E+00
     -0.905  0.0000E+00  0.4400E+00
     -0.721  0.0000E+00  0.4400E+00
     -0.537  0.0000E+00  0.4400E+00
     -0.354  0.0000E+00  0.4400E+00
     -0.170  0.0000E+00  0.4400E+00
      0.014  0.1386E+00  0.4598E+00
      0.197  0.7181E-01  0.4811E+00
      0.381  0.1334E+00  0.5014E+00
      0.565  0.9446E-01  0.5233E+00
      0.748  0.8736E-01  0.5484E+00
      0.932  0.3159E-01  0.5594E+00
      1.116  0.1259E+00  0.5812E+00
      1.299  0.6955E-01  0.6001E+00
      1.483  0.1392E+00  0.6133E+00
      1.667  0.5292E-01  0.6387E+00
      1.850  0.8081E-01  0.6608E+00
      2.034  0.7667E-01  0.6817E+00
      2.218  0.1128E+00  0.7034E+00
      2.401  0.0000E+00  0.7200E+00
      2.585  0.1056E+00  0.7445E+00
      2.769  0.0000E+00  0.7600E+00
      2.952  0.0000E+00  0.7600E+00
      3.136  0.0000E+00  0.7600E+00
      3.320  0.0000E+00  0.7600E+00
      3.503  0.0000E+00  0.7600E+00
      3.687  0.0000E+00  0.7600E+00
      3.871  0.0000E+00  0.7600E+00
      4.054  0.0000E+00  0.7600E+00
      4.238  0.0000E+00  0.7600E+00
      4.422  0.0000E+00  0.7600E+00
      4.605  0.0000E+00  0.7600E+00
      4.789  0.0000E+00  0.7600E+00
      4.973  0.0000E+00  0.7600E+00
      5.157  0.0000E+00  0.7600E+00
      5.340  0.0000E+00  0.7600E+00
      5.524  0.2272E-01  0.7620E+00
      5.708  0.4856E-01  0.7709E+00
      5.891  0.9937E-01  0.7836E+00
      6.075  0.4142E-01  0.7932E+00
      6.259  0.0000E+00  0.8000E+00
      6.442  0.0000E+00  0.8000E+00
      6.626  0.1610E+00  0.8143E+00
      6.810  0.7331E-01  0.8388E+00
      6.993  0.7805E-01  0.8482E+00
      7.177  0.1398E+00  0.8719E+00
      7.361  0.9875E-01  0.8918E+00
      7.544  0.1597E+00  0.9148E+00
      7.728  0.0000E+00  0.9200E+00
      7.912  0.0000E+00  0.9200E+00
      8.095  0.0000E+00  0.9200E+00
      8.279  0.1921E-01  0.9220E+00
      8.463  0.5693E-01  0.9292E+00
      8.646  0.1618E+00  0.9461E+00
      8.830  0.0000E+00  0.9600E+00
      9.014  0.0000E+00  0.9600E+00
      9.197  0.0000E+00  0.9600E+00
      9.381  0.0000E+00  0.9600E+00
      9.565  0.0000E+00  0.9600E+00
      9.748  0.0000E+00  0.9600E+00
      9.932  0.0000E+00  0.9600E+00
     10.116  0.0000E+00  0.9600E+00
     10.299  0.0000E+00  0.9600E+00
     10.483  0.0000E+00  0.9600E+00
     10.667  0.0000E+00  0.9600E+00
     10.850  0.0000E+00  0.9600E+00
     11.034  0.0000E+00  0.9600E+00
     11.218  0.0000E+00  0.9600E+00
