       N       E                     dE             d eps       ncg     rms          rms(c)
DAV:   1     0.495248547614E+03    0.49525E+03   -0.28414E+04   768   0.130E+03
DAV:   2    -0.124658869694E+02   -0.50771E+03   -0.48536E+03   928   0.306E+02
DAV:   3    -0.723983600749E+02   -0.59932E+02   -0.59465E+02  1056   0.941E+01
DAV:   4    -0.787354991842E+02   -0.63371E+01   -0.63163E+01  1416   0.298E+01
DAV:   5    -0.794775679236E+02   -0.74207E+00   -0.74190E+00  1112   0.678E+00    0.230E+01
RMM:   6    -0.773575561905E+02    0.21200E+01   -0.63077E+00   811   0.575E+00    0.152E+01
RMM:   7    -0.769334358817E+02    0.42412E+00   -0.25752E+00   819   0.411E+00    0.407E+00
RMM:   8    -0.768600821526E+02    0.73354E-01   -0.23631E-01   960   0.154E+00    0.577E-01
RMM:   9    -0.768540568019E+02    0.60254E-02   -0.34942E-02   982   0.585E-01    0.231E-01
RMM:  10    -0.768543822490E+02   -0.32545E-03   -0.79948E-03  1188   0.251E-01    0.145E-01
RMM:  11    -0.768547643597E+02   -0.38211E-03   -0.38337E-03  1097   0.149E-01    0.510E-02
RMM:  12    -0.768549094662E+02   -0.14511E-03   -0.17459E-03  1086   0.108E-01    0.240E-02
RMM:  13    -0.768549963517E+02   -0.86886E-04   -0.96178E-04   796   0.775E-02    0.169E-02
RMM:  14    -0.768550376129E+02   -0.41261E-04   -0.46180E-04   897   0.645E-02    0.429E-03
RMM:  15    -0.768550603356E+02   -0.22723E-04   -0.27220E-04   739   0.540E-02    0.292E-03
RMM:  16    -0.768550700064E+02   -0.96708E-05   -0.12507E-04   636   0.471E-02
   1 F= -.76855070E+02 E0= -.76855070E+02  d E =-.768551E+02
       N       E                     dE             d eps       ncg     rms          rms(c)
DAV:   1    -0.768586588789E+02   -0.35985E-02   -0.49969E-01   896   0.316E+00    0.418E-01
RMM:   2    -0.768605278842E+02   -0.18690E-02   -0.24843E-02   957   0.655E-01    0.122E-01
RMM:   3    -0.768601647020E+02    0.36318E-03   -0.16754E-03  1152   0.176E-01    0.112E-01
RMM:   4    -0.768600688808E+02    0.95821E-04   -0.72709E-04   963   0.831E-02    0.219E-02
RMM:   5    -0.768600651174E+02    0.37634E-05   -0.35178E-05   588   0.445E-02
   2 F= -.76860065E+02 E0= -.76860065E+02  d E =-.499511E-02
       N       E                     dE             d eps       ncg     rms          rms(c)
DAV:   1    -0.768596108614E+02    0.45802E-03   -0.76529E-01   896   0.391E+00    0.519E-01
RMM:   2    -0.768624164002E+02   -0.28055E-02   -0.37246E-02   956   0.811E-01    0.149E-01
RMM:   3    -0.768619397591E+02    0.47664E-03   -0.26367E-03  1178   0.220E-01    0.140E-01
RMM:   4    -0.768618062802E+02    0.13348E-03   -0.11506E-03   971   0.105E-01    0.269E-02
RMM:   5    -0.768618232752E+02   -0.16995E-04   -0.27400E-04   932   0.589E-02    0.181E-02
RMM:   6    -0.768618328652E+02   -0.95900E-05   -0.24097E-04   943   0.497E-02    0.966E-03
RMM:   7    -0.768618231833E+02    0.96819E-05    0.22865E-05   469   0.341E-02
   3 F= -.76861823E+02 E0= -.76861823E+02  d E =-.675318E-02
       N       E                     dE             d eps       ncg     rms          rms(c)
DAV:   1    -0.768626806799E+02   -0.84781E-03   -0.37243E-01   800   0.280E+00    0.424E-01
RMM:   2    -0.768643209550E+02   -0.16403E-02   -0.19202E-02   961   0.596E-01    0.121E-01
RMM:   3    -0.768641617010E+02    0.15925E-03   -0.14890E-03  1203   0.164E-01    0.113E-01
RMM:   4    -0.768641004247E+02    0.61276E-04   -0.63117E-04   985   0.790E-02    0.225E-02
RMM:   5    -0.768640979954E+02    0.24293E-05   -0.37671E-05   589   0.479E-02
   4 F= -.76864098E+02 E0= -.76864098E+02  d E =-.227481E-02
       N       E                     dE             d eps       ncg     rms          rms(c)
DAV:   1    -0.768640241255E+02    0.76299E-04   -0.49842E-02   896   0.102E+00    0.159E-01
RMM:   2    -0.768642538165E+02   -0.22969E-03   -0.26400E-03   962   0.225E-01    0.417E-02
RMM:   3    -0.768642519966E+02    0.18199E-05   -0.29003E-04  1113   0.710E-02    0.387E-02
RMM:   4    -0.768642480743E+02    0.39222E-05   -0.12232E-04   860   0.402E-02
   5 F= -.76864248E+02 E0= -.76864248E+02  d E =-.242489E-02
       N       E                     dE             d eps       ncg     rms          rms(c)
DAV:   1    -0.768648991721E+02   -0.64718E-03   -0.28384E-02   840   0.754E-01    0.859E-02
RMM:   2    -0.768649705101E+02   -0.71338E-04   -0.13418E-03   974   0.155E-01    0.371E-02
RMM:   3    -0.768649614199E+02    0.90902E-05   -0.16476E-04   936   0.541E-02
   6 F= -.76864961E+02 E0= -.76864961E+02  d E =-.713346E-03
       N       E                     dE             d eps       ncg     rms          rms(c)
DAV:   1    -0.768653716727E+02   -0.40116E-03   -0.14012E-01   784   0.168E+00    0.190E-01
RMM:   2    -0.768656935927E+02   -0.32192E-03   -0.63388E-03   980   0.337E-01    0.846E-02
RMM:   3    -0.768656551783E+02    0.38414E-04   -0.83825E-04  1169   0.110E-01    0.655E-02
RMM:   4    -0.768656426777E+02    0.12501E-04   -0.30382E-04  1028   0.573E-02    0.153E-02
RMM:   5    -0.768656371680E+02    0.55097E-05    0.15412E-05   470   0.373E-02
   7 F= -.76865637E+02 E0= -.76865637E+02  d E =-.138909E-02
       N       E                     dE             d eps       ncg     rms          rms(c)
DAV:   1    -0.768660078116E+02   -0.36513E-03   -0.63394E-02   808   0.106E+00    0.198E-01
RMM:   2    -0.768660973248E+02   -0.89513E-04   -0.34448E-03   989   0.238E-01    0.774E-02
RMM:   3    -0.768660353246E+02    0.62000E-04   -0.48390E-04  1064   0.828E-02    0.460E-02
RMM:   4    -0.768660304749E+02    0.48497E-05   -0.15053E-04   847   0.430E-02
   8 F= -.76866030E+02 E0= -.76866030E+02  d E =-.393307E-03
       N       E                     dE             d eps       ncg     rms          rms(c)
DAV:   1    -0.768660359325E+02   -0.60788E-06   -0.28146E-03   968   0.224E-01    0.390E-02
RMM:   2    -0.768660431374E+02   -0.72049E-05   -0.18794E-04   923   0.558E-02
   9 F= -.76866043E+02 E0= -.76866043E+02  d E =-.405969E-03
       N       E                     dE             d eps       ncg     rms          rms(c)
DAV:   1    -0.768661841905E+02   -0.14826E-03   -0.38190E-02   784   0.899E-01    0.923E-02
RMM:   2    -0.768662769666E+02   -0.92776E-04   -0.14957E-03   990   0.167E-01    0.346E-02
RMM:   3    -0.768662705661E+02    0.64006E-05   -0.19935E-04   931   0.593E-02
  10 F= -.76866271E+02 E0= -.76866271E+02  d E =-.227429E-03
       N       E                     dE             d eps       ncg     rms          rms(c)
DAV:   1    -0.768657750326E+02    0.50193E-03   -0.34198E-01   768   0.269E+00    0.273E-01
RMM:   2    -0.768665238149E+02   -0.74878E-03   -0.12712E-02   991   0.488E-01    0.982E-02
RMM:   3    -0.768664797963E+02    0.44019E-04   -0.18577E-03  1210   0.167E-01    0.760E-02
RMM:   4    -0.768664588065E+02    0.20990E-04   -0.65868E-04  1095   0.832E-02    0.245E-02
RMM:   5    -0.768664692549E+02   -0.10448E-04   -0.18896E-04   781   0.567E-02
  11 F= -.76866469E+02 E0= -.76866469E+02  d E =-.426117E-03
       N       E                     dE             d eps       ncg     rms          rms(c)
DAV:   1    -0.768665451322E+02   -0.86326E-04   -0.31381E-02   816   0.815E-01    0.101E-01
RMM:   2    -0.768666171812E+02   -0.72049E-04   -0.15311E-03  1013   0.165E-01    0.443E-02
RMM:   3    -0.768666190403E+02   -0.18592E-05   -0.32425E-04  1082   0.690E-02    0.282E-02
RMM:   4    -0.768666077009E+02    0.11339E-04    0.21188E-05   478   0.428E-02
  12 F= -.76866608E+02 E0= -.76866608E+02  d E =-.138446E-03
       N       E                     dE             d eps       ncg     rms          rms(c)
DAV:   1    -0.768663608661E+02    0.25817E-03   -0.85059E-02   768   0.135E+00    0.163E-01
RMM:   2    -0.768665131515E+02   -0.15229E-03   -0.37143E-03   995   0.261E-01    0.691E-02
RMM:   3    -0.768665118878E+02    0.12638E-05   -0.74185E-04  1199   0.102E-01    0.446E-02
RMM:   4    -0.768665102814E+02    0.16064E-05   -0.23264E-04   954   0.551E-02    0.142E-02
RMM:   5    -0.768665077694E+02    0.25120E-05   -0.10493E-05   521   0.418E-02
  13 F= -.76866508E+02 E0= -.76866508E+02  d E =-.385145E-04
