 vasp.5.4.4.18Apr17-6-g9f103f2a35 (build Feb 28 2020 14:15:47) complex          
  
 executed on             LinuxIFC date 2022.08.06  21:43:44
 running on   64 total cores
 distrk:  each k-point on   64 cores,    1 groups
 distr:  one band on NCORES_PER_BAND=  16 cores,    4 groups


--------------------------------------------------------------------------------------------------------


 INCAR:
 POTCAR:    PAW P 26Mar2009                       
 POTCAR:    PAW S 27Mar2009                       
 POTCAR:    PAW Li_sv 10Sep2004                   
 POTCAR:    PAW P 26Mar2009                       
   VRHFIN =P : s2p3                                                             
   LEXCH  = CA                                                                  
   EATOM  =   176.5121 eV,   12.9733 Ry                                         
                                                                                
   TITEL  = PAW P 26Mar2009                                                     
   LULTRA =        F    use ultrasoft PP ?                                      
   IUNSCR =        1    unscreen: 0-lin 1-nonlin 2-no                           
   RPACOR =    1.500    partial core radius                                     
   POMASS =   30.974; ZVAL   =    5.000    mass and valenz                      
   RCORE  =    1.900    outmost cutoff radius                                   
   RWIGS  =    2.330; RWIGS  =    1.233    wigner-seitz radius (au A)           
   ENMAX  =  255.155; ENMIN  =  191.366 eV                                      
   ICORE  =        2    local potential                                         
   LCOR   =        T    correct aug charges                                     
   LPAW   =        T    paw PP                                                  
   EAUG   =  342.924                                                            
   DEXC   =    0.000                                                            
   RMAX   =    1.935    core radius for proj-oper                               
   RAUG   =    1.300    factor for augmentation sphere                          
   RDEP   =    1.931    radius for radial grids                                 
   RDEPT  =    1.780    core radius for aug-charge                              
                                                                                
   Atomic configuration                                                         
    6 entries                                                                   
     n  l   j            E        occ.                                          
     1  0  0.50     -2072.7761   2.0000                                         
     2  0  0.50      -172.9483   2.0000                                         
     2  1  1.50      -124.4644   6.0000                                         
     3  0  0.50       -14.0086   2.0000                                         
     3  1  0.50        -5.6037   3.0000                                         
     3  2  1.50        -6.8029   0.0000                                         
   Description                                                                  
     l       E           TYP  RCUT    TYP  RCUT                                 
     0    -14.0086211     23  1.900                                             
     0    -11.8189335     23  1.900                                             
     1     -5.6037292     23  1.900                                             
     1     -0.3527308     23  1.900                                             
     2     -6.8029130     23  1.900                                             
  local pseudopotential read in
  partial core-charges read in
  partial kinetic energy density read in
  atomic valenz-charges read in
  non local Contribution for L=           0  read in
    real space projection operators read in
  non local Contribution for L=           0  read in
    real space projection operators read in
  non local Contribution for L=           1  read in
    real space projection operators read in
  non local Contribution for L=           1  read in
    real space projection operators read in
    PAW grid and wavefunctions read in
 
   number of l-projection  operators is LMAX  =           4
   number of lm-projection operators is LMMAX =           8
 
 POTCAR:    PAW S 27Mar2009                       
   VRHFIN =S : s2p4                                                             
   LEXCH  = CA                                                                  
   EATOM  =   277.3745 eV,   20.3864 Ry                                         
                                                                                
   TITEL  = PAW S 27Mar2009                                                     
   LULTRA =        F    use ultrasoft PP ?                                      
   IUNSCR =        1    unscreen: 0-lin 1-nonlin 2-no                           
   RPACOR =    1.500    partial core radius                                     
   POMASS =   32.066; ZVAL   =    6.000    mass and valenz                      
   RCORE  =    1.900    outmost cutoff radius                                   
   RWIGS  =    2.200; RWIGS  =    1.164    wigner-seitz radius (au A)           
   ENMAX  =  258.602; ENMIN  =  193.952 eV                                      
   ICORE  =        2    local potential                                         
   LCOR   =        T    correct aug charges                                     
   LPAW   =        T    paw PP                                                  
   EAUG   =  335.092                                                            
   DEXC   =    0.000                                                            
   RMAX   =    1.942    core radius for proj-oper                               
   RAUG   =    1.300    factor for augmentation sphere                          
   RDEP   =    1.954    radius for radial grids                                 
   RDEPT  =    1.744    core radius for aug-charge                              
                                                                                
   Atomic configuration                                                         
    6 entries                                                                   
     n  l   j            E        occ.                                          
     1  0  0.50     -2393.1495   2.0000                                         
     2  0  0.50      -210.5411   2.0000                                         
     2  1  1.50      -156.4410   6.0000                                         
     3  0  0.50       -17.2664   2.0000                                         
     3  1  0.50        -7.1129   4.0000                                         
     3  2  1.50        -8.1635   0.0000                                         
   Description                                                                  
     l       E           TYP  RCUT    TYP  RCUT                                 
     0    -17.2664422     23  1.900                                             
     0    -15.8420823     23  1.900                                             
     1     -7.1129072     23  1.900                                             
     1     -2.8398274     23  1.900                                             
     2     -8.1634956     23  1.900                                             
  local pseudopotential read in
  partial core-charges read in
  partial kinetic energy density read in
  atomic valenz-charges read in
  non local Contribution for L=           0  read in
    real space projection operators read in
  non local Contribution for L=           0  read in
    real space projection operators read in
  non local Contribution for L=           1  read in
    real space projection operators read in
  non local Contribution for L=           1  read in
    real space projection operators read in
    PAW grid and wavefunctions read in
 
   number of l-projection  operators is LMAX  =           4
   number of lm-projection operators is LMMAX =           8
 
 POTCAR:    PAW Li_sv 10Sep2004                   
   VRHFIN =Li: 1s2s                                                             
   LEXCH  = CA                                                                  
   EATOM  =   199.5738 eV,   14.6683 Ry                                         
                                                                                
   TITEL  = PAW Li_sv 10Sep2004                                                 
   LULTRA =        F    use ultrasoft PP ?                                      
   IUNSCR =        0    unscreen: 0-lin 1-nonlin 2-no                           
   RPACOR =    0.000    partial core radius                                     
   POMASS =    7.010; ZVAL   =    3.000    mass and valenz                      
   RCORE  =    1.700    outmost cutoff radius                                   
   RWIGS  =    2.050; RWIGS  =    1.085    wigner-seitz radius (au A)           
   ENMAX  =  498.387; ENMIN  =  373.790 eV                                      
   ICORE  =        2    local potential                                         
   LCOR   =        T    correct aug charges                                     
   LPAW   =        T    paw PP                                                  
   EAUG   =  628.945                                                            
   RMAX   =    1.732    core radius for proj-oper                               
   RAUG   =    1.300    factor for augmentation sphere                          
   RDEP   =    1.728    radius for radial grids                                 
   RDEPT  =    1.329    core radius for aug-charge                              
                                                                                
   Atomic configuration                                                         
    4 entries                                                                   
     n  l   j            E        occ.                                          
     1  0  0.50       -51.0884   2.0000                                         
     2  0  0.50        -2.8766   1.0000                                         
     2  1  0.50        -2.8708   0.0000                                         
     3  2  1.50        -1.3606   0.0000                                         
   Description                                                                  
     l       E           TYP  RCUT    TYP  RCUT                                 
     0    -51.0884324     23  1.400                                             
     0     -2.8766458     23  1.700                                             
     1     -2.8708293     23  1.400                                             
     2     -1.3605826     23  1.400                                             
  local pseudopotential read in
  atomic valenz-charges read in
  non local Contribution for L=           0  read in
    real space projection operators read in
  non local Contribution for L=           0  read in
    real space projection operators read in
  non local Contribution for L=           1  read in
    real space projection operators read in
    PAW grid and wavefunctions read in
 
   number of l-projection  operators is LMAX  =           3
   number of lm-projection operators is LMMAX =           5
 
 Optimization of the real space projectors (new method)

 maximal supplied QI-value         = 19.84
 optimisation between [QCUT,QGAM] = [ 10.32, 20.83] = [ 29.81,121.55] Ry 
 Optimized for a Real-space Cutoff    1.39 Angstroem

   l    n(q)    QCUT    max X(q) W(low)/X(q) W(high)/X(q)  e(spline) 
   0      9    10.318   158.476    0.64E-04    0.80E-04    0.60E-07
   0      9    10.318   128.097    0.63E-04    0.79E-04    0.60E-07
   1      8    10.318    73.217    0.18E-03    0.19E-03    0.20E-06
   1      8    10.318    48.248    0.18E-03    0.19E-03    0.19E-06
 Optimization of the real space projectors (new method)

 maximal supplied QI-value         = 19.84
 optimisation between [QCUT,QGAM] = [ 10.32, 20.83] = [ 29.81,121.55] Ry 
 Optimized for a Real-space Cutoff    1.39 Angstroem

   l    n(q)    QCUT    max X(q) W(low)/X(q) W(high)/X(q)  e(spline) 
   0      9    10.318   180.455    0.73E-04    0.81E-04    0.62E-07
   0      9    10.318   157.733    0.72E-04    0.81E-04    0.62E-07
   1      8    10.318    66.201    0.18E-03    0.20E-03    0.20E-06
   1      8    10.318    49.617    0.18E-03    0.20E-03    0.20E-06
 Optimization of the real space projectors (new method)

 maximal supplied QI-value         = 22.11
 optimisation between [QCUT,QGAM] = [ 10.39, 20.78] = [ 30.24,120.96] Ry 
 Optimized for a Real-space Cutoff    1.20 Angstroem

   l    n(q)    QCUT    max X(q) W(low)/X(q) W(high)/X(q)  e(spline) 
   0      7    10.392    10.443    0.77E-04    0.41E-05    0.30E-07
   0      7    10.392     8.514    0.20E-03    0.36E-04    0.67E-07
   1      7    10.392     5.406    0.20E-03    0.20E-03    0.12E-06
  PAW P 26Mar2009                       :
 energy of atom  1       EATOM= -176.5121
 kinetic energy error for atom=    0.0021 (will be added to EATOM!!)
  PAW S 27Mar2009                       :
 energy of atom  2       EATOM= -277.3745
 kinetic energy error for atom=    0.0041 (will be added to EATOM!!)
  PAW Li_sv 10Sep2004                   :
 energy of atom  3       EATOM= -199.5738
 kinetic energy error for atom=    0.0564 (will be added to EATOM!!)
 
 
 POSCAR: Good luck                               
  positions in cartesian coordinates
  No initial velocities read in
 exchange correlation table for  LEXCH =        2
   RHO(1)=    0.500       N(1)  =     2000
   RHO(2)=  100.500       N(2)  =     4000
 


--------------------------------------------------------------------------------------------------------


 ion  position               nearest neighbor table
   1  0.000  0.269  0.336-   7 2.03   9 2.03   3 2.04   6 2.04
   2  0.500  0.731  0.836-   8 2.03  10 2.03   4 2.04   5 2.04
   3  0.209  0.100  0.220-   1 2.04  13 2.41  14 2.43  12 2.56  11 2.62
   4  0.291  0.900  0.720-   2 2.04  14 2.41  13 2.43  11 2.56  12 2.62
   5  0.709  0.900  0.720-   2 2.04  15 2.41  16 2.43  11 2.56  12 2.62
   6  0.791  0.100  0.220-   1 2.04  16 2.41  15 2.43  12 2.56  11 2.62
   7  0.000  0.564  0.180-   1 2.03  14 2.34  15 2.34
   8  0.500  0.436  0.680-   2 2.03  13 2.34  16 2.34
   9  0.000  0.313  0.676-   1 2.03  13 2.37  16 2.37
  10  0.500  0.687  0.176-   2 2.03  14 2.37  15 2.37
  11  0.000  0.933  0.919-   4 2.56   5 2.56   3 2.62   6 2.62
  12  0.500  0.067  0.419-   3 2.56   6 2.56   4 2.62   5 2.62
  13  0.268  0.270  0.862-   8 2.34   9 2.37   3 2.41   4 2.43
  14  0.232  0.730  0.362-   7 2.34  10 2.37   4 2.41   3 2.43
  15  0.768  0.730  0.362-   7 2.34  10 2.37   5 2.41   6 2.43
  16  0.732  0.270  0.862-   8 2.34   9 2.37   6 2.41   5 2.43
 
  LATTYP: Found a simple orthorhombic cell.
 ALAT       =     5.9256646741
 B/A-ratio  =     1.0349279308
 C/A-ratio  =     1.3125384105
  
  Lattice vectors:
  
 A1 = (   0.0000000000,   0.0000000000,  -5.9256646741)
 A2 = (   0.0000000000,  -6.1326358795,   0.0000000000)
 A3 = (  -7.7776624926,   0.0000000000,   0.0000000000)


Analysis of symmetry for initial positions (statically):
=====================================================================
 Subroutine PRICEL returns:
 Original cell was already a primitive cell.
 

 Routine SETGRP: Setting up the symmetry group for a 
 simple orthorhombic supercell.


 Subroutine GETGRP returns: Found  4 space group operations
 (whereof  2 operations were pure point group operations)
 out of a pool of  8 trial point group operations.


The static configuration has the point symmetry C_1h.
 The point group associated with its full space group is C_2v.


Analysis of symmetry for dynamics (positions and initial velocities):
=====================================================================
 Subroutine PRICEL returns:
 Original cell was already a primitive cell.
 

 Routine SETGRP: Setting up the symmetry group for a 
 simple orthorhombic supercell.


 Subroutine GETGRP returns: Found  4 space group operations
 (whereof  2 operations were pure point group operations)
 out of a pool of  8 trial point group operations.


The dynamic configuration has the point symmetry C_1h.
 The point group associated with its full space group is C_2v.


 Subroutine INISYM returns: Found  4 space group operations
 (whereof  2 operations are pure point group operations),
 and found     1 'primitive' translations

 
 
 KPOINTS: Automatic mesh                          

Automatic generation of k-mesh.
Space group operators:
 irot       det(A)        alpha          n_x          n_y          n_z        tau_x        tau_y        tau_z
    1     1.000000     0.000000     1.000000     0.000000     0.000000     0.000000     0.000000     0.000000
    2    -1.000000   180.000000     1.000000     0.000000     0.000000     0.000000     0.000000     0.000000
    3    -1.000000   180.000000     0.000000     1.000000     0.000000    -0.500000    -0.000000    -0.500000
    4     1.000000   180.000000     0.000000     0.000000     1.000000    -0.500000    -0.000000    -0.500000
 
 Subroutine IBZKPT returns following result:
 ===========================================
 
 Found      8 irreducible k-points:
 
 Following reciprocal coordinates:
            Coordinates               Weight
  0.125000  0.125000  0.125000      8.000000
  0.375000  0.125000  0.125000      8.000000
  0.125000  0.375000  0.125000      8.000000
  0.375000  0.375000  0.125000      8.000000
  0.125000  0.125000  0.375000      8.000000
  0.375000  0.125000  0.375000      8.000000
  0.125000  0.375000  0.375000      8.000000
  0.375000  0.375000  0.375000      8.000000
 
 Following cartesian coordinates:
            Coordinates               Weight
  0.016072  0.020383  0.021095      8.000000
  0.048215  0.020383  0.021095      8.000000
  0.016072  0.061148  0.021095      8.000000
  0.048215  0.061148  0.021095      8.000000
  0.016072  0.020383  0.063284      8.000000
  0.048215  0.020383  0.063284      8.000000
  0.016072  0.061148  0.063284      8.000000
  0.048215  0.061148  0.063284      8.000000
 
 TETIRR: Found    140 inequivalent tetrahedra from      384


--------------------------------------------------------------------------------------------------------




 Dimension of arrays:
   k-points           NKPTS =      8   k-points in BZ     NKDIM =      8   number of bands    NBANDS=     48
   number of dos      NEDOS =    301   number of ions     NIONS =     16
   non local maximal  LDIM  =      4   non local SUM 2l+1 LMDIM =      8
   total plane-waves  NPLWV =  90720
   max r-space proj   IRMAX =   3642   max aug-charges    IRDMAX=  10311
   dimension x,y,z NGX =    54 NGY =   42 NGZ =   40
   dimension x,y,z NGXF=   108 NGYF=   84 NGZF=   80
   support grid    NGXF=   108 NGYF=   84 NGZF=   80
   ions per type =               2   8   6
   NGX,Y,Z   is equivalent  to a cutoff of  11.54, 11.39, 11.22 a.u.
   NGXF,Y,Z  is equivalent  to a cutoff of  23.08, 22.77, 22.44 a.u.

 SYSTEM =  unknown system                          
 POSCAR =  Good luck                               

 Startparameter for this run:
   NWRITE =      2    write-flag & timer
   PREC   = accura    normal or accurate (medium, high low for compatibility)
   ISTART =      0    job   : 0-new  1-cont  2-samecut
   ICHARG =      2    charge: 1-file 2-atom 10-const
   ISPIN  =      1    spin polarized calculation?
   LNONCOLLINEAR =      F non collinear calculations
   LSORBIT =      F    spin-orbit coupling
   INIWAV =      1    electr: 0-lowe 1-rand  2-diag
   LASPH  =      F    aspherical Exc in radial PAW
   METAGGA=      F    non-selfconsistent MetaGGA calc.

 Electronic Relaxation 1
   ENCUT  =  420.0 eV  30.87 Ry    5.56 a.u.  13.00 10.25  9.90*2*pi/ulx,y,z
   ENINI  =  420.0     initial cutoff
   ENAUG  =  628.9 eV  augmentation charge cutoff
   NELM   =    100;   NELMIN=  2; NELMDL= -5     # of ELM steps 
   EDIFF  = 0.2E-04   stopping-criterion for ELM
   LREAL  =      T    real-space projection
   NLSPLINE    = F    spline interpolate recip. space projectors
   LCOMPAT=      F    compatible to vasp.4.4
   GGA_COMPAT  = T    GGA compatible to vasp.4.4-vasp.4.6
   LMAXPAW     = -100 max onsite density
   LMAXMIX     =    2 max onsite mixed and CHGCAR
   VOSKOWN=      0    Vosko Wilk Nusair interpolation
   ROPT   =   -0.00025  -0.00025  -0.00025
 Ionic relaxation
   EDIFFG = 0.2E-03   stopping-criterion for IOM
   NSW    =    100    number of steps for IOM
   NBLOCK =      1;   KBLOCK =    100    inner block; outer block 
   IBRION =      2    ionic relax: 0-MD 1-quasi-New 2-CG
   NFREE  =      1    steps in history (QN), initial steepest desc. (CG)
   ISIF   =      3    stress and relaxation
   IWAVPR =     11    prediction:  0-non 1-charg 2-wave 3-comb
   ISYM   =      2    0-nonsym 1-usesym 2-fastsym
   LCORR  =      T    Harris-Foulkes like correction to forces

   POTIM  = 0.5000    time-step for ionic-motion
   TEIN   =    0.0    initial temperature
   TEBEG  =    0.0;   TEEND  =   0.0 temperature during run
   SMASS  =  -3.00    Nose mass-parameter (am)
   estimated Nose-frequenzy (Omega)   =  0.10E-29 period in steps =****** mass=  -0.138E-26a.u.
   SCALEE = 1.0000    scale energy and forces
   NPACO  =    256;   APACO  = 16.0  distance and # of slots for P.C.
   PSTRESS=    0.0 pullay stress

  Mass of Ions in am
   POMASS =  30.97 32.07  7.01
  Ionic Valenz
   ZVAL   =   5.00  6.00  3.00
  Atomic Wigner-Seitz radii
   RWIGS  =  -1.00 -1.00 -1.00
  virtual crystal weights 
   VCA    =   1.00  1.00  1.00
   NELECT =      76.0000    total number of electrons
   NUPDOWN=      -1.0000    fix difference up-down

 DOS related values:
   EMIN   =  10.00;   EMAX   =-10.00  energy-range for DOS
   EFERMI =   0.00
   ISMEAR =    -5;   SIGMA  =   0.20  broadening in eV -4-tet -1-fermi 0-gaus

 Electronic relaxation 2 (details)
   IALGO  =     68    algorithm
   LDIAG  =      T    sub-space diagonalisation (order eigenvalues)
   LSUBROT=      F    optimize rotation matrix (better conditioning)
   TURBO    =      0    0=normal 1=particle mesh
   IRESTART =      0    0=no restart 2=restart with 2 vectors
   NREBOOT  =      0    no. of reboots
   NMIN     =      0    reboot dimension
   EREF     =   0.00    reference energy to select bands
   IMIX   =      4    mixing-type and parameters
     AMIX     =   0.40;   BMIX     =  1.00
     AMIX_MAG =   1.60;   BMIX_MAG =  1.00
     AMIN     =   0.10
     WC   =   100.;   INIMIX=   1;  MIXPRE=   1;  MAXMIX= -45

 Intra band minimization:
   WEIMIN = 0.0010     energy-eigenvalue tresh-hold
   EBREAK =  0.10E-06  absolut break condition
   DEPER  =   0.30     relativ break condition  

   TIME   =   0.40     timestep for ELM

  volume/ion in A,a.u.               =      17.66       119.21
  Fermi-wavevector in a.u.,A,eV,Ry     =   1.056659  1.996796 15.191293  1.116529
  Thomas-Fermi vector in A             =   2.191903
 
 Write flags
   LWAVE        =      F    write WAVECAR
   LDOWNSAMPLE  =      F    k-point downsampling of WAVECAR
   LCHARG       =      F    write CHGCAR
   LVTOT        =      F    write LOCPOT, total local potential
   LVHAR        =      F    write LOCPOT, Hartree potential only
   LELF         =      F    write electronic localiz. function (ELF)
   LORBIT       =      0    0 simple, 1 ext, 2 COOP (PROOUT), +10 PAW based schemes


 Dipole corrections
   LMONO  =      F    monopole corrections only (constant potential shift)
   LDIPOL =      F    correct potential (dipole corrections)
   IDIPOL =      0    1-x, 2-y, 3-z, 4-all directions 
   EPSILON=  1.0000000 bulk dielectric constant

 Exchange correlation treatment:
   GGA     =    --    GGA type
   LEXCH   =     2    internal setting for exchange type
   VOSKOWN=      0    Vosko Wilk Nusair interpolation
   LHFCALC =     F    Hartree Fock is set to
   LHFONE  =     F    Hartree Fock one center treatment
   AEXX    =    0.0000 exact exchange contribution

 Linear response parameters
   LEPSILON=     F    determine dielectric tensor
   LRPA    =     F    only Hartree local field effects (RPA)
   LNABLA  =     F    use nabla operator in PAW spheres
   LVEL    =     F    velocity operator in full k-point grid
   LINTERFAST=   F  fast interpolation
   KINTER  =     0    interpolate to denser k-point grid
   CSHIFT  =0.1000    complex shift for real part using Kramers Kronig
   OMEGAMAX=  -1.0    maximum frequency
   DEG_THRESHOLD= 0.2000000E-02 threshold for treating states as degnerate
   RTIME   =   -0.100 relaxation time in fs
  (WPLASMAI=    0.000 imaginary part of plasma frequency in eV, 0.658/RTIME)
   DFIELD  = 0.0000000 0.0000000 0.0000000 field for delta impulse in time
 
 Orbital magnetization related:
   ORBITALMAG=     F  switch on orbital magnetization
   LCHIMAG   =     F  perturbation theory with respect to B field
   DQ        =  0.001000  dq finite difference perturbation B field
   LLRAUG    =     F  two centre corrections for induced B field



--------------------------------------------------------------------------------------------------------


 conjugate gradient relaxation of ions
 charge density and potential will be updated during run
 non-spin polarized calculation
 RMM-DIIS sequential band-by-band and
  variant of blocked Davidson during initial phase
 perform sub-space diagonalisation
    before iterative eigenvector-optimisation
 modified Broyden-mixing scheme, WC =      100.0
 initial mixing is a Kerker type mixing with AMIX =  0.4000 and BMIX =      1.0000
 Hartree-type preconditioning will be used
 using additional bands           10
 real space projection scheme for non local part
 use partial core corrections
 calculate Harris-corrections to forces 
   (improved forces if not selfconsistent)
 use of overlap-Matrix (Vanderbilt PP)
 Fermi weights with tetrahedron method with Bloechl corrections


--------------------------------------------------------------------------------------------------------


  energy-cutoff  :      420.00
  volume of cell :      282.64
      direct lattice vectors                 reciprocal lattice vectors
     7.777662493  0.000000000  0.000000000     0.128573334  0.000000000  0.000000000
     0.000000000  6.132635880  0.000000000     0.000000000  0.163062021  0.000000000
     0.000000000  0.000000000  5.925664674     0.000000000  0.000000000  0.168757440

  length of vectors
     7.777662493  6.132635880  5.925664674     0.128573334  0.163062021  0.168757440


 
 k-points in units of 2pi/SCALE and weight: Automatic mesh                          
   0.01607167  0.02038275  0.02109468       0.125
   0.04821500  0.02038275  0.02109468       0.125
   0.01607167  0.06114826  0.02109468       0.125
   0.04821500  0.06114826  0.02109468       0.125
   0.01607167  0.02038275  0.06328404       0.125
   0.04821500  0.02038275  0.06328404       0.125
   0.01607167  0.06114826  0.06328404       0.125
   0.04821500  0.06114826  0.06328404       0.125
 
 k-points in reciprocal lattice and weights: Automatic mesh                          
   0.12500000  0.12500000  0.12500000       0.125
   0.37500000  0.12500000  0.12500000       0.125
   0.12500000  0.37500000  0.12500000       0.125
   0.37500000  0.37500000  0.12500000       0.125
   0.12500000  0.12500000  0.37500000       0.125
   0.37500000  0.12500000  0.37500000       0.125
   0.12500000  0.37500000  0.37500000       0.125
   0.37500000  0.37500000  0.37500000       0.125
 
 position of ions in fractional coordinates (direct lattice) 
   0.00000000  0.26905538  0.33590109
   0.50000000  0.73094462  0.83590109
   0.20855882  0.10049433  0.21997457
   0.29144118  0.89950567  0.71997457
   0.70855882  0.89950567  0.71997457
   0.79144118  0.10049433  0.21997457
   0.00000000  0.56361010  0.17957008
   0.50000000  0.43638990  0.67957008
   0.00000000  0.31252735  0.67589874
   0.50000000  0.68747265  0.17589874
   0.00000000  0.93273017  0.91947069
   0.50000000  0.06726983  0.41947069
   0.26770890  0.27020780  0.86234832
   0.23229110  0.72979220  0.36234832
   0.76770890  0.72979220  0.36234832
   0.73229110  0.27020780  0.86234832
 
 position of ions in cartesian coordinates  (Angst):
   0.00000000  1.65001867  1.99043720
   3.88883125  4.48261721  4.95326954
   1.62210015  0.61629513  1.30349555
   2.26673110  5.51634075  4.26632789
   5.51093139  5.51634075  4.26632789
   6.15556235  0.61629513  1.30349555
   0.00000000  3.45641553  1.06407210
   3.88883125  2.67622034  4.02690444
   0.00000000  1.91661641  4.00514928
   3.88883125  4.21601947  1.04231694
   0.00000000  5.72009453  5.44847499
   3.88883125  0.41254135  2.48564265
   2.08214945  1.65708607  5.10998700
   1.80668179  4.47554981  2.14715466
   5.97098070  4.47554981  2.14715466
   5.69551304  1.65708607  5.10998700
 


--------------------------------------------------------------------------------------------------------


 k-point  1 :   0.1250 0.1250 0.1250  plane waves:    5527
 k-point  2 :   0.3750 0.1250 0.1250  plane waves:    5511
 k-point  3 :   0.1250 0.3750 0.1250  plane waves:    5509
 k-point  4 :   0.3750 0.3750 0.1250  plane waves:    5526
 k-point  5 :   0.1250 0.1250 0.3750  plane waves:    5528
 k-point  6 :   0.3750 0.1250 0.3750  plane waves:    5540
 k-point  7 :   0.1250 0.3750 0.3750  plane waves:    5528
 k-point  8 :   0.3750 0.3750 0.3750  plane waves:    5538

 maximum and minimum number of plane-waves per node :       355      329

 maximum number of plane-waves:      5540
 maximum index in each direction: 
   IXMAX=   12   IYMAX=   10   IZMAX=    9
   IXMIN=  -13   IYMIN=  -10   IZMIN=  -10


 real space projection operators:
  total allocation   :       2708.89 KBytes
  max/ min on nodes  :        207.00        146.41


 parallel 3D FFT for wavefunctions:
    minimum data exchange during FFTs selected (reduces bandwidth)
 parallel 3D FFT for charge:
    minimum data exchange during FFTs selected (reduces bandwidth)


 total amount of memory used by VASP MPI-rank0    33598. kBytes
=======================================================================

   base      :      30000. kBytes
   nonlr-proj:       1240. kBytes
   fftplans  :        656. kBytes
   grid      :       1147. kBytes
   one-center:          3. kBytes
   wavefun   :        552. kBytes
 
     INWAV:  cpu time    0.0000: real time    0.0000
 Broyden mixing: mesh for mixing (old mesh)
   NGX = 25   NGY = 21   NGZ = 19
  (NGX  =108   NGY  = 84   NGZ  = 80)
  gives a total of   9975 points

 initial charge density was supplied:
 charge density of overlapping atoms calculated
 number of electron      76.0000000 magnetization 
 keeping initial charge density in first step


--------------------------------------------------------------------------------------------------------


 Maximum index for non-local projection operator          448
 Maximum index for augmentation-charges          545 (set IRDMAX)


--------------------------------------------------------------------------------------------------------


 First call to EWALD:  gamma=   0.270
 Maximum number of real-space cells 2x 3x 3
 Maximum number of reciprocal cells 3x 3x 3

    FEWALD:  cpu time    0.0016: real time    0.0016


--------------------------------------- Iteration      1(   1)  ---------------------------------------


    POTLOK:  cpu time    0.0048: real time    0.0073
    SETDIJ:  cpu time    0.0027: real time    0.0032
     EDDAV:  cpu time    0.1941: real time    0.2014
 BZINTS: Fermi energy: 14.825949; 75.980537 electrons
         Band energy:-110.836818;  BLOECHL correction: -0.045671
       DOS:  cpu time    0.0114: real time    0.0114
    --------------------------------------------
      LOOP:  cpu time    0.2129: real time    0.2233

 eigenvalue-minimisations  :   768
 total energy-change (2. order) : 0.4952485E+03  (-0.2841367E+04)
 number of electron      76.0000000 magnetization 
 augmentation part       76.0000000 magnetization 

 Free energy of the ion-electron system (eV)
  ---------------------------------------------------
  alpha Z        PSCENC =        69.81662515
  Ewald energy   TEWEN  =     -2742.23957837
  -Hartree energ DENC   =      -625.85258838
  -exchange      EXHF   =         0.00000000
  -V(xc)+E(xc)   XCENC  =       182.17080406
  PAW double counting   =      2494.22442938    -2541.12215007
  entropy T*S    EENTRO =         0.00000000
  eigenvalues    EBANDS =      -110.83681794
  atomic energy  EATOM  =      3769.08782378
  Solvation  Ediel_sol  =         0.00000000
  ---------------------------------------------------
  free energy    TOTEN  =       495.24854761 eV

  energy without entropy =      495.24854761  energy(sigma->0) =      495.24854761


--------------------------------------------------------------------------------------------------------




--------------------------------------- Iteration      1(   2)  ---------------------------------------


     EDDAV:  cpu time    0.1970: real time    0.1970
 BZINTS: Fermi energy:  5.503663; 76.000000 electrons
         Band energy:-618.551253;  BLOECHL correction:  0.000000
       DOS:  cpu time    0.0013: real time    0.0013
    --------------------------------------------
      LOOP:  cpu time    0.1983: real time    0.1983

 eigenvalue-minimisations  :   928
 total energy-change (2. order) :-0.5077144E+03  (-0.4853632E+03)
 number of electron      76.0000000 magnetization 
 augmentation part       76.0000000 magnetization 

 Free energy of the ion-electron system (eV)
  ---------------------------------------------------
  alpha Z        PSCENC =        69.81662515
  Ewald energy   TEWEN  =     -2742.23957837
  -Hartree energ DENC   =      -625.85258838
  -exchange      EXHF   =         0.00000000
  -V(xc)+E(xc)   XCENC  =       182.17080406
  PAW double counting   =      2494.22442938    -2541.12215007
  entropy T*S    EENTRO =         0.00000000
  eigenvalues    EBANDS =      -618.55125252
  atomic energy  EATOM  =      3769.08782378
  Solvation  Ediel_sol  =         0.00000000
  ---------------------------------------------------
  free energy    TOTEN  =       -12.46588697 eV

  energy without entropy =      -12.46588697  energy(sigma->0) =      -12.46588697


--------------------------------------------------------------------------------------------------------




--------------------------------------- Iteration      1(   3)  ---------------------------------------


     EDDAV:  cpu time    0.2161: real time    0.2161
 BZINTS: Fermi energy:  2.198576; 76.000000 electrons
         Band energy:-678.483726;  BLOECHL correction:  0.000000
       DOS:  cpu time    0.0014: real time    0.0014
    --------------------------------------------
      LOOP:  cpu time    0.2175: real time    0.2175

 eigenvalue-minimisations  :  1056
 total energy-change (2. order) :-0.5993247E+02  (-0.5946497E+02)
 number of electron      76.0000000 magnetization 
 augmentation part       76.0000000 magnetization 

 Free energy of the ion-electron system (eV)
  ---------------------------------------------------
  alpha Z        PSCENC =        69.81662515
  Ewald energy   TEWEN  =     -2742.23957837
  -Hartree energ DENC   =      -625.85258838
  -exchange      EXHF   =         0.00000000
  -V(xc)+E(xc)   XCENC  =       182.17080406
  PAW double counting   =      2494.22442938    -2541.12215007
  entropy T*S    EENTRO =         0.00000000
  eigenvalues    EBANDS =      -678.48372563
  atomic energy  EATOM  =      3769.08782378
  Solvation  Ediel_sol  =         0.00000000
  ---------------------------------------------------
  free energy    TOTEN  =       -72.39836007 eV

  energy without entropy =      -72.39836007  energy(sigma->0) =      -72.39836007


--------------------------------------------------------------------------------------------------------




--------------------------------------- Iteration      1(   4)  ---------------------------------------


     EDDAV:  cpu time    0.2687: real time    0.2688
 BZINTS: Fermi energy:  2.162855; 76.000000 electrons
         Band energy:-684.820865;  BLOECHL correction:  0.000000
       DOS:  cpu time    0.0014: real time    0.0014
    --------------------------------------------
      LOOP:  cpu time    0.2701: real time    0.2702

 eigenvalue-minimisations  :  1416
 total energy-change (2. order) :-0.6337139E+01  (-0.6316288E+01)
 number of electron      76.0000000 magnetization 
 augmentation part       76.0000000 magnetization 

 Free energy of the ion-electron system (eV)
  ---------------------------------------------------
  alpha Z        PSCENC =        69.81662515
  Ewald energy   TEWEN  =     -2742.23957837
  -Hartree energ DENC   =      -625.85258838
  -exchange      EXHF   =         0.00000000
  -V(xc)+E(xc)   XCENC  =       182.17080406
  PAW double counting   =      2494.22442938    -2541.12215007
  entropy T*S    EENTRO =         0.00000000
  eigenvalues    EBANDS =      -684.82086474
  atomic energy  EATOM  =      3769.08782378
  Solvation  Ediel_sol  =         0.00000000
  ---------------------------------------------------
  free energy    TOTEN  =       -78.73549918 eV

  energy without entropy =      -78.73549918  energy(sigma->0) =      -78.73549918


--------------------------------------------------------------------------------------------------------




--------------------------------------- Iteration      1(   5)  ---------------------------------------


     EDDAV:  cpu time    0.2374: real time    0.2377
 BZINTS: Fermi energy:  2.096803; 76.000000 electrons
         Band energy:-685.562933;  BLOECHL correction:  0.000000
       DOS:  cpu time    0.0015: real time    0.0015
    CHARGE:  cpu time    0.0147: real time    0.0147
    MIXING:  cpu time    0.0009: real time    0.0016
    --------------------------------------------
      LOOP:  cpu time    0.2544: real time    0.2554

 eigenvalue-minimisations  :  1112
 total energy-change (2. order) :-0.7420687E+00  (-0.7418978E+00)
 number of electron      75.9999993 magnetization 
 augmentation part       -1.7374193 magnetization 

 Broyden mixing:
  rms(total) = 0.23026E+01    rms(broyden)= 0.23019E+01
  rms(prec ) = 0.25303E+01
  weight for this iteration     100.00

 Free energy of the ion-electron system (eV)
  ---------------------------------------------------
  alpha Z        PSCENC =        69.81662515
  Ewald energy   TEWEN  =     -2742.23957837
  -Hartree energ DENC   =      -625.85258838
  -exchange      EXHF   =         0.00000000
  -V(xc)+E(xc)   XCENC  =       182.17080406
  PAW double counting   =      2494.22442938    -2541.12215007
  entropy T*S    EENTRO =         0.00000000
  eigenvalues    EBANDS =      -685.56293347
  atomic energy  EATOM  =      3769.08782378
  Solvation  Ediel_sol  =         0.00000000
  ---------------------------------------------------
  free energy    TOTEN  =       -79.47756792 eV

  energy without entropy =      -79.47756792  energy(sigma->0) =      -79.47756792


--------------------------------------------------------------------------------------------------------




--------------------------------------- Iteration      1(   6)  ---------------------------------------


    POTLOK:  cpu time    0.0030: real time    0.0032
    SETDIJ:  cpu time    0.0008: real time    0.0008
    EDDIAG:  cpu time    0.0500: real time    0.0508
  RMM-DIIS:  cpu time    0.0692: real time    0.0692
    ORTHCH:  cpu time    0.0067: real time    0.0067
 BZINTS: Fermi energy:  2.499294; 76.000000 electrons
         Band energy:-669.076979;  BLOECHL correction:  0.000000
       DOS:  cpu time    0.0012: real time    0.0012
    CHARGE:  cpu time    0.0137: real time    0.0137
    MIXING:  cpu time    0.0004: real time    0.0004
    --------------------------------------------
      LOOP:  cpu time    0.1450: real time    0.1461

 eigenvalue-minimisations  :   811
 total energy-change (2. order) : 0.2120012E+01  (-0.6307701E+00)
 number of electron      75.9999992 magnetization 
 augmentation part       -1.6878659 magnetization 

 Broyden mixing:
  rms(total) = 0.15203E+01    rms(broyden)= 0.15202E+01
  rms(prec ) = 0.15805E+01
  weight for this iteration     100.00

 eigenvalues of (default mixing * dielectric matrix)
  average eigenvalue GAMMA=   2.4705
  2.4705

 Free energy of the ion-electron system (eV)
  ---------------------------------------------------
  alpha Z        PSCENC =        69.81662515
  Ewald energy   TEWEN  =     -2742.23957837
  -Hartree energ DENC   =      -639.99636472
  -exchange      EXHF   =         0.00000000
  -V(xc)+E(xc)   XCENC  =       183.74472484
  PAW double counting   =      3999.61017547    -4048.30398377
  entropy T*S    EENTRO =         0.00000000
  eigenvalues    EBANDS =      -669.07697856
  atomic energy  EATOM  =      3769.08782378
  Solvation  Ediel_sol  =         0.00000000
  ---------------------------------------------------
  free energy    TOTEN  =       -77.35755619 eV

  energy without entropy =      -77.35755619  energy(sigma->0) =      -77.35755619


--------------------------------------------------------------------------------------------------------




--------------------------------------- Iteration      1(   7)  ---------------------------------------


    POTLOK:  cpu time    0.0028: real time    0.0031
    SETDIJ:  cpu time    0.0008: real time    0.0008
    EDDIAG:  cpu time    0.0494: real time    0.0494
  RMM-DIIS:  cpu time    0.0695: real time    0.0695
    ORTHCH:  cpu time    0.0067: real time    0.0067
 BZINTS: Fermi energy:  2.896146; 76.000000 electrons
         Band energy:-653.918574;  BLOECHL correction:  0.000000
       DOS:  cpu time    0.0014: real time    0.0014
    CHARGE:  cpu time    0.0138: real time    0.0138
    MIXING:  cpu time    0.0004: real time    0.0004
    --------------------------------------------
      LOOP:  cpu time    0.1448: real time    0.1451

 eigenvalue-minimisations  :   819
 total energy-change (2. order) : 0.4241203E+00  (-0.2575235E+00)
 number of electron      75.9999992 magnetization 
 augmentation part       -1.6504474 magnetization 

 Broyden mixing:
  rms(total) = 0.40730E+00    rms(broyden)= 0.40730E+00
  rms(prec ) = 0.43205E+00
  weight for this iteration     100.00

 eigenvalues of (default mixing * dielectric matrix)
  average eigenvalue GAMMA=   1.9179
  1.4062  2.4296

 Free energy of the ion-electron system (eV)
  ---------------------------------------------------
  alpha Z        PSCENC =        69.81662515
  Ewald energy   TEWEN  =     -2742.23957837
  -Hartree energ DENC   =      -654.63867857
  -exchange      EXHF   =         0.00000000
  -V(xc)+E(xc)   XCENC  =       185.32043892
  PAW double counting   =      6786.12790193    -6836.48939446
  entropy T*S    EENTRO =         0.00000000
  eigenvalues    EBANDS =      -653.91857426
  atomic energy  EATOM  =      3769.08782378
  Solvation  Ediel_sol  =         0.00000000
  ---------------------------------------------------
  free energy    TOTEN  =       -76.93343588 eV

  energy without entropy =      -76.93343588  energy(sigma->0) =      -76.93343588


--------------------------------------------------------------------------------------------------------




--------------------------------------- Iteration      1(   8)  ---------------------------------------


    POTLOK:  cpu time    0.0027: real time    0.0030
    SETDIJ:  cpu time    0.0009: real time    0.0009
    EDDIAG:  cpu time    0.0490: real time    0.0490
  RMM-DIIS:  cpu time    0.0838: real time    0.0838
    ORTHCH:  cpu time    0.0067: real time    0.0067
 BZINTS: Fermi energy:  2.756024; 76.000000 electrons
         Band energy:-653.556529;  BLOECHL correction:  0.000000
       DOS:  cpu time    0.0012: real time    0.0012
    CHARGE:  cpu time    0.0138: real time    0.0138
    MIXING:  cpu time    0.0004: real time    0.0004
    --------------------------------------------
      LOOP:  cpu time    0.1585: real time    0.1587

 eigenvalue-minimisations  :   960
 total energy-change (2. order) : 0.7335373E-01  (-0.2363056E-01)
 number of electron      75.9999992 magnetization 
 augmentation part       -1.6775683 magnetization 

 Broyden mixing:
  rms(total) = 0.57676E-01    rms(broyden)= 0.57638E-01
  rms(prec ) = 0.70914E-01
  weight for this iteration     100.00

 eigenvalues of (default mixing * dielectric matrix)
  average eigenvalue GAMMA=   1.6913
  1.0538  1.7755  2.2445

 Free energy of the ion-electron system (eV)
  ---------------------------------------------------
  alpha Z        PSCENC =        69.81662515
  Ewald energy   TEWEN  =     -2742.23957837
  -Hartree energ DENC   =      -654.90236835
  -exchange      EXHF   =         0.00000000
  -V(xc)+E(xc)   XCENC  =       185.39507329
  PAW double counting   =      7563.48676206    -7613.94789112
  entropy T*S    EENTRO =         0.00000000
  eigenvalues    EBANDS =      -653.55652859
  atomic energy  EATOM  =      3769.08782378
  Solvation  Ediel_sol  =         0.00000000
  ---------------------------------------------------
  free energy    TOTEN  =       -76.86008215 eV

  energy without entropy =      -76.86008215  energy(sigma->0) =      -76.86008215


--------------------------------------------------------------------------------------------------------




--------------------------------------- Iteration      1(   9)  ---------------------------------------


    POTLOK:  cpu time    0.0027: real time    0.0030
    SETDIJ:  cpu time    0.0008: real time    0.0008
    EDDIAG:  cpu time    0.0489: real time    0.0489
  RMM-DIIS:  cpu time    0.0816: real time    0.0817
    ORTHCH:  cpu time    0.0098: real time    0.0098
 BZINTS: Fermi energy:  2.750307; 76.000000 electrons
         Band energy:-654.655935;  BLOECHL correction:  0.000000
       DOS:  cpu time    0.0012: real time    0.0012
    CHARGE:  cpu time    0.0141: real time    0.0141
    MIXING:  cpu time    0.0004: real time    0.0004
    --------------------------------------------
      LOOP:  cpu time    0.1596: real time    0.1599

 eigenvalue-minimisations  :   982
 total energy-change (2. order) : 0.6025351E-02  (-0.3494211E-02)
 number of electron      75.9999992 magnetization 
 augmentation part       -1.6930578 magnetization 

 Broyden mixing:
  rms(total) = 0.23081E-01    rms(broyden)= 0.23057E-01
  rms(prec ) = 0.24718E-01
  weight for this iteration     100.00

 eigenvalues of (default mixing * dielectric matrix)
  average eigenvalue GAMMA=   1.7649
  1.2177  2.1609  1.8405  1.8405

 Free energy of the ion-electron system (eV)
  ---------------------------------------------------
  alpha Z        PSCENC =        69.81662515
  Ewald energy   TEWEN  =     -2742.23957837
  -Hartree energ DENC   =      -653.76847496
  -exchange      EXHF   =         0.00000000
  -V(xc)+E(xc)   XCENC  =       185.33008823
  PAW double counting   =      7470.47552849    -7520.90013365
  entropy T*S    EENTRO =         0.00000000
  eigenvalues    EBANDS =      -654.65593547
  atomic energy  EATOM  =      3769.08782378
  Solvation  Ediel_sol  =         0.00000000
  ---------------------------------------------------
  free energy    TOTEN  =       -76.85405680 eV

  energy without entropy =      -76.85405680  energy(sigma->0) =      -76.85405680


--------------------------------------------------------------------------------------------------------




--------------------------------------- Iteration      1(  10)  ---------------------------------------


    POTLOK:  cpu time    0.0027: real time    0.0029
    SETDIJ:  cpu time    0.0008: real time    0.0008
    EDDIAG:  cpu time    0.0484: real time    0.0484
  RMM-DIIS:  cpu time    0.0989: real time    0.0989
    ORTHCH:  cpu time    0.0067: real time    0.0067
 BZINTS: Fermi energy:  2.748859; 76.000000 electrons
         Band energy:-654.314809;  BLOECHL correction:  0.000000
       DOS:  cpu time    0.0012: real time    0.0012
    CHARGE:  cpu time    0.0138: real time    0.0138
    MIXING:  cpu time    0.0004: real time    0.0004
    --------------------------------------------
      LOOP:  cpu time    0.1728: real time    0.1731

 eigenvalue-minimisations  :  1188
 total energy-change (2. order) :-0.3254471E-03  (-0.7994797E-03)
 number of electron      75.9999992 magnetization 
 augmentation part       -1.6970982 magnetization 

 Broyden mixing:
  rms(total) = 0.14548E-01    rms(broyden)= 0.14530E-01
  rms(prec ) = 0.15300E-01
  weight for this iteration     100.00

 eigenvalues of (default mixing * dielectric matrix)
  average eigenvalue GAMMA=   1.7943
  2.4262  2.4262  1.9814  0.8502  1.2874

 Free energy of the ion-electron system (eV)
  ---------------------------------------------------
  alpha Z        PSCENC =        69.81662515
  Ewald energy   TEWEN  =     -2742.23957837
  -Hartree energ DENC   =      -654.11442969
  -exchange      EXHF   =         0.00000000
  -V(xc)+E(xc)   XCENC  =       185.36091747
  PAW double counting   =      7447.89597398    -7498.34690594
  entropy T*S    EENTRO =         0.00000000
  eigenvalues    EBANDS =      -654.31480862
  atomic energy  EATOM  =      3769.08782378
  Solvation  Ediel_sol  =         0.00000000
  ---------------------------------------------------
  free energy    TOTEN  =       -76.85438225 eV

  energy without entropy =      -76.85438225  energy(sigma->0) =      -76.85438225


--------------------------------------------------------------------------------------------------------




--------------------------------------- Iteration      1(  11)  ---------------------------------------


    POTLOK:  cpu time    0.0027: real time    0.0030
    SETDIJ:  cpu time    0.0008: real time    0.0008
    EDDIAG:  cpu time    0.0489: real time    0.0489
  RMM-DIIS:  cpu time    0.0922: real time    0.0922
    ORTHCH:  cpu time    0.0068: real time    0.0068
 BZINTS: Fermi energy:  2.747609; 76.000000 electrons
         Band energy:-654.138500;  BLOECHL correction:  0.000000
       DOS:  cpu time    0.0012: real time    0.0012
    CHARGE:  cpu time    0.0144: real time    0.0144
    MIXING:  cpu time    0.0004: real time    0.0004
    --------------------------------------------
      LOOP:  cpu time    0.1675: real time    0.1677

 eigenvalue-minimisations  :  1097
 total energy-change (2. order) :-0.3821107E-03  (-0.3833669E-03)
 number of electron      75.9999992 magnetization 
 augmentation part       -1.6993077 magnetization 

 Broyden mixing:
  rms(total) = 0.51000E-02    rms(broyden)= 0.50807E-02
  rms(prec ) = 0.56852E-02
  weight for this iteration     100.00

 eigenvalues of (default mixing * dielectric matrix)
  average eigenvalue GAMMA=   1.6853
  2.4536  2.4536  1.6156  1.0491  1.2700  1.2700

 Free energy of the ion-electron system (eV)
  ---------------------------------------------------
  alpha Z        PSCENC =        69.81662515
  Ewald energy   TEWEN  =     -2742.23957837
  -Hartree energ DENC   =      -654.29817301
  -exchange      EXHF   =         0.00000000
  -V(xc)+E(xc)   XCENC  =       185.37719573
  PAW double counting   =      7418.11457827    -7468.57473586
  entropy T*S    EENTRO =         0.00000000
  eigenvalues    EBANDS =      -654.13850005
  atomic energy  EATOM  =      3769.08782378
  Solvation  Ediel_sol  =         0.00000000
  ---------------------------------------------------
  free energy    TOTEN  =       -76.85476436 eV

  energy without entropy =      -76.85476436  energy(sigma->0) =      -76.85476436


--------------------------------------------------------------------------------------------------------




--------------------------------------- Iteration      1(  12)  ---------------------------------------


    POTLOK:  cpu time    0.0029: real time    0.0032
    SETDIJ:  cpu time    0.0009: real time    0.0009
    EDDIAG:  cpu time    0.0546: real time    0.0546
  RMM-DIIS:  cpu time    0.0892: real time    0.0892
    ORTHCH:  cpu time    0.0067: real time    0.0067
 BZINTS: Fermi energy:  2.743837; 76.000000 electrons
         Band energy:-654.177364;  BLOECHL correction:  0.000000
       DOS:  cpu time    0.0012: real time    0.0012
    CHARGE:  cpu time    0.0137: real time    0.0137
    MIXING:  cpu time    0.0005: real time    0.0005
    --------------------------------------------
      LOOP:  cpu time    0.1698: real time    0.1701

 eigenvalue-minimisations  :  1086
 total energy-change (2. order) :-0.1451065E-03  (-0.1745943E-03)
 number of electron      75.9999992 magnetization 
 augmentation part       -1.7013119 magnetization 

 Broyden mixing:
  rms(total) = 0.24043E-02    rms(broyden)= 0.23880E-02
  rms(prec ) = 0.26517E-02
  weight for this iteration     100.00

 eigenvalues of (default mixing * dielectric matrix)
  average eigenvalue GAMMA=   1.5505
  2.3991  2.3991  1.7410  1.3550  1.3550  1.0466  0.5576

 Free energy of the ion-electron system (eV)
  ---------------------------------------------------
  alpha Z        PSCENC =        69.81662515
  Ewald energy   TEWEN  =     -2742.23957837
  -Hartree energ DENC   =      -654.26671561
  -exchange      EXHF   =         0.00000000
  -V(xc)+E(xc)   XCENC  =       185.37808823
  PAW double counting   =      7429.35746689    -7479.81125585
  entropy T*S    EENTRO =         0.00000000
  eigenvalues    EBANDS =      -654.17736369
  atomic energy  EATOM  =      3769.08782378
  Solvation  Ediel_sol  =         0.00000000
  ---------------------------------------------------
  free energy    TOTEN  =       -76.85490947 eV

  energy without entropy =      -76.85490947  energy(sigma->0) =      -76.85490947


--------------------------------------------------------------------------------------------------------




--------------------------------------- Iteration      1(  13)  ---------------------------------------


    POTLOK:  cpu time    0.0028: real time    0.0031
    SETDIJ:  cpu time    0.0008: real time    0.0008
    EDDIAG:  cpu time    0.0491: real time    0.0491
  RMM-DIIS:  cpu time    0.0674: real time    0.0674
    ORTHCH:  cpu time    0.0071: real time    0.0071
 BZINTS: Fermi energy:  2.740443; 76.000000 electrons
         Band energy:-654.153967;  BLOECHL correction:  0.000000
       DOS:  cpu time    0.0012: real time    0.0012
    CHARGE:  cpu time    0.0138: real time    0.0138
    MIXING:  cpu time    0.0005: real time    0.0005
    --------------------------------------------
      LOOP:  cpu time    0.1427: real time    0.1429

 eigenvalue-minimisations  :   796
 total energy-change (2. order) :-0.8688552E-04  (-0.9617799E-04)
 number of electron      75.9999992 magnetization 
 augmentation part       -1.7021209 magnetization 

 Broyden mixing:
  rms(total) = 0.16883E-02    rms(broyden)= 0.16782E-02
  rms(prec ) = 0.18561E-02
  weight for this iteration     100.00

 eigenvalues of (default mixing * dielectric matrix)
  average eigenvalue GAMMA=   1.8071
  3.0904  2.6374  2.1315  2.1315  1.3907  1.0529  1.0112  1.0112

 Free energy of the ion-electron system (eV)
  ---------------------------------------------------
  alpha Z        PSCENC =        69.81662515
  Ewald energy   TEWEN  =     -2742.23957837
  -Hartree energ DENC   =      -654.29944729
  -exchange      EXHF   =         0.00000000
  -V(xc)+E(xc)   XCENC  =       185.38052661
  PAW double counting   =      7428.51964857    -7478.96662758
  entropy T*S    EENTRO =         0.00000000
  eigenvalues    EBANDS =      -654.15396721
  atomic energy  EATOM  =      3769.08782378
  Solvation  Ediel_sol  =         0.00000000
  ---------------------------------------------------
  free energy    TOTEN  =       -76.85499635 eV

  energy without entropy =      -76.85499635  energy(sigma->0) =      -76.85499635


--------------------------------------------------------------------------------------------------------




--------------------------------------- Iteration      1(  14)  ---------------------------------------


    POTLOK:  cpu time    0.0027: real time    0.0029
    SETDIJ:  cpu time    0.0009: real time    0.0009
    EDDIAG:  cpu time    0.0486: real time    0.0486
  RMM-DIIS:  cpu time    0.0799: real time    0.0799
    ORTHCH:  cpu time    0.0068: real time    0.0068
 BZINTS: Fermi energy:  2.737442; 76.000000 electrons
         Band energy:-654.152637;  BLOECHL correction:  0.000000
       DOS:  cpu time    0.0012: real time    0.0012
    CHARGE:  cpu time    0.0138: real time    0.0138
    MIXING:  cpu time    0.0005: real time    0.0005
    --------------------------------------------
      LOOP:  cpu time    0.1542: real time    0.1545

 eigenvalue-minimisations  :   897
 total energy-change (2. order) :-0.4126112E-04  (-0.4618021E-04)
 number of electron      75.9999992 magnetization 
 augmentation part       -1.7027841 magnetization 

 Broyden mixing:
  rms(total) = 0.42942E-03    rms(broyden)= 0.41533E-03
  rms(prec ) = 0.72000E-03
  weight for this iteration     100.00

 eigenvalues of (default mixing * dielectric matrix)
  average eigenvalue GAMMA=   1.7150
  2.9752  2.5092  2.1229  2.1229  1.6786  1.3146  0.9746  0.8683  0.8683

 Free energy of the ion-electron system (eV)
  ---------------------------------------------------
  alpha Z        PSCENC =        69.81662515
  Ewald energy   TEWEN  =     -2742.23957837
  -Hartree energ DENC   =      -654.31891016
  -exchange      EXHF   =         0.00000000
  -V(xc)+E(xc)   XCENC  =       185.38334444
  PAW double counting   =      7425.93824299    -7476.36994814
  entropy T*S    EENTRO =         0.00000000
  eigenvalues    EBANDS =      -654.15263730
  atomic energy  EATOM  =      3769.08782378
  Solvation  Ediel_sol  =         0.00000000
  ---------------------------------------------------
  free energy    TOTEN  =       -76.85503761 eV

  energy without entropy =      -76.85503761  energy(sigma->0) =      -76.85503761


--------------------------------------------------------------------------------------------------------




--------------------------------------- Iteration      1(  15)  ---------------------------------------


    POTLOK:  cpu time    0.0027: real time    0.0029
    SETDIJ:  cpu time    0.0008: real time    0.0008
    EDDIAG:  cpu time    0.0496: real time    0.0496
  RMM-DIIS:  cpu time    0.0663: real time    0.0663
    ORTHCH:  cpu time    0.0067: real time    0.0067
 BZINTS: Fermi energy:  2.734232; 76.000000 electrons
         Band energy:-654.141504;  BLOECHL correction:  0.000000
       DOS:  cpu time    0.0011: real time    0.0011
    CHARGE:  cpu time    0.0140: real time    0.0140
    MIXING:  cpu time    0.0005: real time    0.0005
    --------------------------------------------
      LOOP:  cpu time    0.1417: real time    0.1420

 eigenvalue-minimisations  :   739
 total energy-change (2. order) :-0.2272275E-04  (-0.2722035E-04)
 number of electron      75.9999992 magnetization 
 augmentation part       -1.7030854 magnetization 

 Broyden mixing:
  rms(total) = 0.29195E-03    rms(broyden)= 0.28341E-03
  rms(prec ) = 0.34750E-03
  weight for this iteration     100.00

 eigenvalues of (default mixing * dielectric matrix)
  average eigenvalue GAMMA=   1.6569
  3.1620  2.4353  2.3107  2.3107  1.7685  1.3125  0.9965  0.8111  0.8111  0.6509

 Free energy of the ion-electron system (eV)
  ---------------------------------------------------
  alpha Z        PSCENC =        69.81662515
  Ewald energy   TEWEN  =     -2742.23957837
  -Hartree energ DENC   =      -654.33006293
  -exchange      EXHF   =         0.00000000
  -V(xc)+E(xc)   XCENC  =       185.38387808
  PAW double counting   =      7425.73550020    -7476.16774261
  entropy T*S    EENTRO =         0.00000000
  eigenvalues    EBANDS =      -654.14150363
  atomic energy  EATOM  =      3769.08782378
  Solvation  Ediel_sol  =         0.00000000
  ---------------------------------------------------
  free energy    TOTEN  =       -76.85506034 eV

  energy without entropy =      -76.85506034  energy(sigma->0) =      -76.85506034


--------------------------------------------------------------------------------------------------------




--------------------------------------- Iteration      1(  16)  ---------------------------------------


    POTLOK:  cpu time    0.0027: real time    0.0029
    SETDIJ:  cpu time    0.0008: real time    0.0008
    EDDIAG:  cpu time    0.0483: real time    0.0483
  RMM-DIIS:  cpu time    0.0580: real time    0.0580
    ORTHCH:  cpu time    0.0067: real time    0.0067
 BZINTS: Fermi energy:  2.731173; 76.000000 electrons
         Band energy:-654.139352;  BLOECHL correction:  0.000000
       DOS:  cpu time    0.0012: real time    0.0012
    --------------------------------------------
      LOOP:  cpu time    0.1177: real time    0.1180

 eigenvalue-minimisations  :   636
 total energy-change (2. order) :-0.9670774E-05  (-0.1250667E-04)
 number of electron      75.9999992 magnetization 
 augmentation part       -1.7030854 magnetization 

 Free energy of the ion-electron system (eV)
  ---------------------------------------------------
  alpha Z        PSCENC =        69.81662515
  Ewald energy   TEWEN  =     -2742.23957837
  -Hartree energ DENC   =      -654.33372494
  -exchange      EXHF   =         0.00000000
  -V(xc)+E(xc)   XCENC  =       185.38422619
  PAW double counting   =      7425.70974857    -7476.14083862
  entropy T*S    EENTRO =         0.00000000
  eigenvalues    EBANDS =      -654.13935177
  atomic energy  EATOM  =      3769.08782378
  Solvation  Ediel_sol  =         0.00000000
  ---------------------------------------------------
  free energy    TOTEN  =       -76.85507001 eV

  energy without entropy =      -76.85507001  energy(sigma->0) =      -76.85507001


--------------------------------------------------------------------------------------------------------




 average (electrostatic) potential at core
  the test charge radii are     0.9587  0.9698  0.7079
  (the norm of the test charge is              1.0000)
       1 -88.0024       2 -88.0024       3 -88.0614       4 -88.0614       5 -88.0614
       6 -88.0614       7 -87.9817       8 -87.9817       9 -88.0294      10 -88.0294
      11 -64.2585      12 -64.2585      13 -63.5305      14 -63.5305      15 -63.5305
      16 -63.5305
 
 
 
 E-fermi :   2.7312     XC(G=0):  -9.1944     alpha+bet :-10.6856


 k-point     1 :       0.1250    0.1250    0.1250
  band No.  band energies     occupation 
      1     -41.4059      2.00000
      2     -41.4059      2.00000
      3     -40.7019      2.00000
      4     -40.7017      2.00000
      5     -40.7012      2.00000
      6     -40.7009      2.00000
      7     -12.3871      2.00000
      8     -12.2082      2.00000
      9      -9.4595      2.00000
     10      -9.3240      2.00000
     11      -9.2834      2.00000
     12      -9.0662      2.00000
     13      -9.0024      2.00000
     14      -8.8952      2.00000
     15      -5.3979      2.00000
     16      -4.7877      2.00000
     17      -2.5246      2.00000
     18      -2.3382      2.00000
     19      -2.2077      2.00000
     20      -2.0647      2.00000
     21      -1.8991      2.00000
     22      -1.7982      2.00000
     23      -0.1167      2.00000
     24       0.0186      2.00000
     25       0.2280      2.00000
     26       0.5004      2.00000
     27       0.7133      2.00000
     28       0.9302      2.00000
     29       1.1530      2.00000
     30       1.3125      2.00000
     31       1.5473      2.00000
     32       1.5886      2.00000
     33       1.8619      2.00000
     34       2.0021      2.00000
     35       2.1576      2.00000
     36       2.2723      2.00000
     37       2.4844      2.00000
     38       2.7224      2.00000
     39       5.8187      0.00000
     40       6.1010      0.00000
     41       6.4627      0.00000
     42       6.6454      0.00000
     43       6.9420      0.00000
     44       7.2654      0.00000
     45       7.4795      0.00000
     46       7.5878      0.00000
     47       8.1549      0.00000
     48       8.6962      0.00000

 k-point     2 :       0.3750    0.1250    0.1250
  band No.  band energies     occupation 
      1     -41.4059      2.00000
      2     -41.4059      2.00000
      3     -40.7018      2.00000
      4     -40.7017      2.00000
      5     -40.7012      2.00000
      6     -40.7010      2.00000
      7     -12.3373      2.00000
      8     -12.2633      2.00000
      9      -9.3892      2.00000
     10      -9.3154      2.00000
     11      -9.2650      2.00000
     12      -9.1721      2.00000
     13      -8.9760      2.00000
     14      -8.9258      2.00000
     15      -5.2086      2.00000
     16      -4.9561      2.00000
     17      -2.4711      2.00000
     18      -2.4030      2.00000
     19      -2.1772      2.00000
     20      -2.0789      2.00000
     21      -1.8837      2.00000
     22      -1.8318      2.00000
     23      -0.1164      2.00000
     24      -0.0302      2.00000
     25       0.4574      2.00000
     26       0.5770      2.00000
     27       0.7827      2.00000
     28       0.9421      2.00000
     29       1.0894      2.00000
     30       1.2669      2.00000
     31       1.4996      2.00000
     32       1.6260      2.00000
     33       1.7821      2.00000
     34       1.9610      2.00000
     35       2.0015      2.00000
     36       2.1414      2.00000
     37       2.4574      2.00000
     38       2.5648      2.00000
     39       6.0233      0.00000
     40       6.2200      0.00000
     41       6.6321      0.00000
     42       6.8074      0.00000
     43       7.1258      0.00000
     44       7.2379      0.00000
     45       7.3588      0.00000
     46       7.5284      0.00000
     47       8.5194      0.00000
     48       8.6723      0.00000

 k-point     3 :       0.1250    0.3750    0.1250
  band No.  band energies     occupation 
      1     -41.4060      2.00000
      2     -41.4059      2.00000
      3     -40.7019      2.00000
      4     -40.7017      2.00000
      5     -40.7011      2.00000
      6     -40.7010      2.00000
      7     -12.3309      2.00000
      8     -12.2193      2.00000
      9      -9.4657      2.00000
     10      -9.4241      2.00000
     11      -9.3123      2.00000
     12      -9.0999      2.00000
     13      -9.0144      2.00000
     14      -8.9046      2.00000
     15      -5.1947      2.00000
     16      -4.7382      2.00000
     17      -2.5378      2.00000
     18      -2.3159      2.00000
     19      -2.2124      2.00000
     20      -2.0424      2.00000
     21      -1.8594      2.00000
     22      -1.7262      2.00000
     23      -0.0674      2.00000
     24       0.0611      2.00000
     25       0.3720      2.00000
     26       0.4934      2.00000
     27       0.5648      2.00000
     28       0.8180      2.00000
     29       1.0529      2.00000
     30       1.2041      2.00000
     31       1.4988      2.00000
     32       1.7091      2.00000
     33       1.8294      2.00000
     34       2.0015      2.00000
     35       2.1599      2.00000
     36       2.3087      2.00000
     37       2.4371      2.00000
     38       2.6712      2.00000
     39       5.6173      0.00000
     40       6.1974      0.00000
     41       6.5763      0.00000
     42       6.6211      0.00000
     43       6.9335      0.00000
     44       7.0698      0.00000
     45       7.2126      0.00000
     46       7.5526      0.00000
     47       8.5384      0.00000
     48       8.6883      0.00000

 k-point     4 :       0.3750    0.3750    0.1250
  band No.  band energies     occupation 
      1     -41.4060      2.00000
      2     -41.4060      2.00000
      3     -40.7018      2.00000
      4     -40.7017      2.00000
      5     -40.7012      2.00000
      6     -40.7011      2.00000
      7     -12.2986      2.00000
      8     -12.2523      2.00000
      9      -9.4677      2.00000
     10      -9.4431      2.00000
     11      -9.2401      2.00000
     12      -9.1491      2.00000
     13      -8.9901      2.00000
     14      -8.9447      2.00000
     15      -5.0461      2.00000
     16      -4.8567      2.00000
     17      -2.4529      2.00000
     18      -2.3577      2.00000
     19      -2.1698      2.00000
     20      -2.1206      2.00000
     21      -1.7936      2.00000
     22      -1.7348      2.00000
     23      -0.0327      2.00000
     24       0.0737      2.00000
     25       0.1747      2.00000
     26       0.3749      2.00000
     27       0.6942      2.00000
     28       0.7830      2.00000
     29       0.9357      2.00000
     30       1.1712      2.00000
     31       1.5672      2.00000
     32       1.6672      2.00000
     33       1.8685      2.00000
     34       2.0043      2.00000
     35       2.1551      2.00000
     36       2.2667      2.00000
     37       2.5048      2.00000
     38       2.6473      2.00000
     39       5.8032      0.00000
     40       6.0620      0.00000
     41       6.6816      0.00000
     42       6.7973      0.00000
     43       7.0676      0.00000
     44       7.2052      0.00000
     45       7.4269      0.00000
     46       7.5521      0.00000
     47       8.5718      0.00000
     48       8.7046      0.00000

 k-point     5 :       0.1250    0.1250    0.3750
  band No.  band energies     occupation 
      1     -41.4060      2.00000
      2     -41.4059      2.00000
      3     -40.7018      2.00000
      4     -40.7017      2.00000
      5     -40.7011      2.00000
      6     -40.7010      2.00000
      7     -12.2918      2.00000
      8     -12.2134      2.00000
      9      -9.4527      2.00000
     10      -9.3594      2.00000
     11      -9.2917      2.00000
     12      -9.1707      2.00000
     13      -9.0667      2.00000
     14      -9.0559      2.00000
     15      -5.1179      2.00000
     16      -4.8435      2.00000
     17      -2.2246      2.00000
     18      -2.1289      2.00000
     19      -2.0577      2.00000
     20      -1.9644      2.00000
     21      -1.8941      2.00000
     22      -1.7503      2.00000
     23       0.0199      2.00000
     24       0.0959      2.00000
     25       0.1646      2.00000
     26       0.3460      2.00000
     27       0.4788      2.00000
     28       0.6613      2.00000
     29       1.1110      2.00000
     30       1.3251      2.00000
     31       1.5454      2.00000
     32       1.6500      2.00000
     33       1.7707      2.00000
     34       1.9216      2.00000
     35       2.0740      2.00000
     36       2.2892      2.00000
     37       2.4843      2.00000
     38       2.6717      2.00000
     39       5.4311      0.00000
     40       5.8017      0.00000
     41       6.4632      0.00000
     42       6.6042      0.00000
     43       7.1477      0.00000
     44       7.2696      0.00000
     45       7.4188      0.00000
     46       7.5447      0.00000
     47       8.3145      0.00000
     48       8.6827      0.00000

 k-point     6 :       0.3750    0.1250    0.3750
  band No.  band energies     occupation 
      1     -41.4060      2.00000
      2     -41.4059      2.00000
      3     -40.7017      2.00000
      4     -40.7017      2.00000
      5     -40.7012      2.00000
      6     -40.7011      2.00000
      7     -12.2679      2.00000
      8     -12.2353      2.00000
      9      -9.4817      2.00000
     10      -9.4384      2.00000
     11      -9.2234      2.00000
     12      -9.1879      2.00000
     13      -9.0419      2.00000
     14      -9.0214      2.00000
     15      -5.0412      2.00000
     16      -4.9271      2.00000
     17      -2.2624      2.00000
     18      -2.2309      2.00000
     19      -2.0158      2.00000
     20      -1.9260      2.00000
     21      -1.7817      2.00000
     22      -1.7383      2.00000
     23       0.0250      2.00000
     24       0.0498      2.00000
     25       0.2971      2.00000
     26       0.4317      2.00000
     27       0.5565      2.00000
     28       0.6810      2.00000
     29       1.1064      2.00000
     30       1.1771      2.00000
     31       1.4670      2.00000
     32       1.5510      2.00000
     33       1.7544      2.00000
     34       1.8047      2.00000
     35       1.9468      2.00000
     36       2.0545      2.00000
     37       2.5792      2.00000
     38       2.7010      2.00000
     39       5.6085      0.00000
     40       5.7780      0.00000
     41       6.6954      0.00000
     42       6.8393      0.00000
     43       7.0887      0.00000
     44       7.1822      0.00000
     45       7.5133      0.00000
     46       7.6603      0.00000
     47       8.4530      0.00000
     48       8.7784      0.00000

 k-point     7 :       0.1250    0.3750    0.3750
  band No.  band energies     occupation 
      1     -41.4060      2.00000
      2     -41.4059      2.00000
      3     -40.7018      2.00000
      4     -40.7018      2.00000
      5     -40.7011      2.00000
      6     -40.7010      2.00000
      7     -12.2523      2.00000
      8     -12.2033      2.00000
      9      -9.4459      2.00000
     10      -9.3999      2.00000
     11      -9.3103      2.00000
     12      -9.2476      2.00000
     13      -9.1251      2.00000
     14      -9.0725      2.00000
     15      -4.9307      2.00000
     16      -4.7329      2.00000
     17      -2.2268      2.00000
     18      -2.1791      2.00000
     19      -2.0815      2.00000
     20      -2.0172      2.00000
     21      -1.7675      2.00000
     22      -1.6148      2.00000
     23      -0.0250      2.00000
     24       0.2287      2.00000
     25       0.3062      2.00000
     26       0.4715      2.00000
     27       0.6304      2.00000
     28       0.7436      2.00000
     29       0.9348      2.00000
     30       1.0298      2.00000
     31       1.1797      2.00000
     32       1.2992      2.00000
     33       1.6643      2.00000
     34       2.1034      2.00000
     35       2.2424      2.00000
     36       2.3318      2.00000
     37       2.4816      2.00000
     38       2.5492      2.00000
     39       5.5760      0.00000
     40       5.9150      0.00000
     41       6.5244      0.00000
     42       6.7877      0.00000
     43       6.8206      0.00000
     44       6.9966      0.00000
     45       7.1393      0.00000
     46       7.2554      0.00000
     47       8.5202      0.00000
     48       8.7134      0.00000

 k-point     8 :       0.3750    0.3750    0.3750
  band No.  band energies     occupation 
      1     -41.4060      2.00000
      2     -41.4059      2.00000
      3     -40.7017      2.00000
      4     -40.7017      2.00000
      5     -40.7012      2.00000
      6     -40.7011      2.00000
      7     -12.2369      2.00000
      8     -12.2166      2.00000
      9      -9.4343      2.00000
     10      -9.4160      2.00000
     11      -9.3119      2.00000
     12      -9.2795      2.00000
     13      -9.0989      2.00000
     14      -9.0734      2.00000
     15      -4.8494      2.00000
     16      -4.7666      2.00000
     17      -2.2276      2.00000
     18      -2.1926      2.00000
     19      -2.0089      2.00000
     20      -1.9257      2.00000
     21      -1.7694      2.00000
     22      -1.6891      2.00000
     23      -0.1064      2.00000
     24       0.0203      2.00000
     25       0.2769      2.00000
     26       0.3711      2.00000
     27       0.5981      2.00000
     28       0.6421      2.00000
     29       1.0269      2.00000
     30       1.1018      2.00000
     31       1.3399      2.00000
     32       1.4005      2.00000
     33       1.6722      2.00000
     34       1.9122      2.00000
     35       2.2354      2.00000
     36       2.2743      2.00000
     37       2.5181      2.00000
     38       2.6109      2.00000
     39       5.7399      0.00000
     40       5.9043      0.00000
     41       6.6637      0.00000
     42       6.6792      0.00000
     43       6.9947      0.00000
     44       7.1420      0.00000
     45       7.3022      0.00000
     46       7.4075      0.00000
     47       8.5317      0.00000
     48       8.7456      0.00000


--------------------------------------------------------------------------------------------------------


 soft charge-density along one line, spin component           1
         0         1         2         3         4         5         6         7         8         9
 total charge-density along one line
 
 pseudopotential strength for first ion, spin component:           1
 29.983  37.410   0.002  -0.002   0.000   0.003  -0.003   0.000
 37.410  46.680   0.002  -0.002   0.000   0.003  -0.003   0.000
  0.002   0.002   6.574   0.001  -0.000  10.180   0.001  -0.000
 -0.002  -0.002   0.001   6.574  -0.000   0.001  10.179  -0.000
  0.000   0.000  -0.000  -0.000   6.573  -0.000  -0.000  10.178
  0.003   0.003  10.180   0.001  -0.000  15.782   0.001  -0.000
 -0.003  -0.003   0.001  10.179  -0.000   0.001  15.781  -0.000
  0.000   0.000  -0.000  -0.000  10.178  -0.000  -0.000  15.779
 total augmentation occupancy for first ion, spin component:           1
 11.156  -6.449   0.100  -0.270   0.000  -0.032   0.120   0.000
 -6.449   4.207  -0.080   0.212   0.000   0.022  -0.088   0.000
  0.100  -0.080   4.358   0.077   0.000  -1.460  -0.039   0.000
 -0.270   0.212   0.077   4.524   0.000  -0.039  -1.531   0.000
  0.000   0.000   0.000   0.000   4.243   0.000   0.000  -1.397
 -0.032   0.022  -1.460  -0.039   0.000   0.528   0.018   0.000
  0.120  -0.088  -0.039  -1.531   0.000   0.018   0.560   0.000
  0.000   0.000   0.000   0.000  -1.397   0.000   0.000   0.500


------------------------ aborting loop because EDIFF is reached ----------------------------------------


    CHARGE:  cpu time    0.0137: real time    0.0137
    FORLOC:  cpu time    0.0007: real time    0.0007
    FORNL :  cpu time    0.0344: real time    0.0345
    STRESS:  cpu time    0.1014: real time    0.1022
    FORCOR:  cpu time    0.0024: real time    0.0024
    FORHAR:  cpu time    0.0022: real time    0.0022
    MIXING:  cpu time    0.0004: real time    0.0004
    OFIELD:  cpu time    0.0001: real time    0.0003

  FORCE on cell =-STRESS in cart. coord.  units (eV):
  Direction    XX          YY          ZZ          XY          YZ          ZX
  --------------------------------------------------------------------------------------
  Alpha Z    69.81663    69.81663    69.81663
  Ewald    -920.02777  -991.95846  -830.25870    -0.00000     0.00000    -0.00000
  Hartree   218.00129   172.59005   263.75745    -0.00000     0.00000     0.00000
  E(xc)    -277.16254  -277.08957  -277.12332     0.00000     0.00000     0.00000
  Local    -651.00015  -530.62260  -778.97218     0.00000    -0.00000    -0.00000
  n-local   611.69535   610.41604   610.54311    -0.44052     0.05711     0.00180
  augment   -43.34628   -43.02906   -42.58216    -0.00000     0.00000     0.00000
  Kinetic   991.63885   989.88310   984.94504    -0.02213    -0.11479     0.05011
  Fock        0.00000     0.00000     0.00000     0.00000     0.00000     0.00000
  -------------------------------------------------------------------------------------
  Total      -0.38464     0.00614     0.12587     0.00000     0.00000     0.00000
  in kB      -2.18036     0.03478     0.71352     0.00000     0.00000     0.00000
  external pressure =       -0.48 kB  Pullay stress =        0.00 kB


 VOLUME and BASIS-vectors are now :
 -----------------------------------------------------------------------------
  energy-cutoff  :      420.00
  volume of cell :      282.64
      direct lattice vectors                 reciprocal lattice vectors
     7.777662493  0.000000000  0.000000000     0.128573334  0.000000000  0.000000000
     0.000000000  6.132635880  0.000000000     0.000000000  0.163062021  0.000000000
[...]
     17      -2.5405      2.00000
     18      -2.3156      2.00000
     19      -2.2101      2.00000
     20      -2.0389      2.00000
     21      -1.8517      2.00000
     22      -1.7280      2.00000
     23      -0.0621      2.00000
     24       0.0660      2.00000
     25       0.3806      2.00000
     26       0.4765      2.00000
     27       0.5741      2.00000
     28       0.8112      2.00000
     29       1.0540      2.00000
     30       1.2146      2.00000
     31       1.4945      2.00000
     32       1.6912      2.00000
     33       1.8205      2.00000
     34       1.9918      2.00000
     35       2.1756      2.00000
     36       2.2806      2.00000
     37       2.4412      2.00000
     38       2.6328      2.00000
     39       5.6200      0.00000
     40       6.1931      0.00000
     41       6.5809      0.00000
     42       6.6203      0.00000
     43       6.9212      0.00000
     44       7.0619      0.00000
     45       7.1935      0.00000
     46       7.5340      0.00000
     47       8.4725      0.00000
     48       8.5962      0.00000

 k-point     4 :       0.3750    0.3750    0.1250
  band No.  band energies     occupation 
      1     -41.3794      2.00000
      2     -41.3794      2.00000
      3     -40.6928      2.00000
      4     -40.6927      2.00000
      5     -40.6922      2.00000
      6     -40.6921      2.00000
      7     -12.2966      2.00000
      8     -12.2512      2.00000
      9      -9.4605      2.00000
     10      -9.4365      2.00000
     11      -9.2474      2.00000
     12      -9.1575      2.00000
     13      -8.9970      2.00000
     14      -8.9523      2.00000
     15      -5.0459      2.00000
     16      -4.8598      2.00000
     17      -2.4533      2.00000
     18      -2.3571      2.00000
     19      -2.1668      2.00000
     20      -2.1173      2.00000
     21      -1.7900      2.00000
     22      -1.7324      2.00000
     23      -0.0273      2.00000
     24       0.0831      2.00000
     25       0.1825      2.00000
     26       0.3868      2.00000
     27       0.6729      2.00000
     28       0.7686      2.00000
     29       0.9409      2.00000
     30       1.1650      2.00000
     31       1.5561      2.00000
     32       1.6579      2.00000
     33       1.8558      2.00000
     34       1.9969      2.00000
     35       2.1556      2.00000
     36       2.2675      2.00000
     37       2.4822      2.00000
     38       2.6201      2.00000
     39       5.8066      0.00000
     40       6.0628      0.00000
     41       6.6771      0.00000
     42       6.7939      0.00000
     43       7.0450      0.00000
     44       7.1852      0.00000
     45       7.4176      0.00000
     46       7.5373      0.00000
     47       8.5988      0.00000
     48       8.6562      0.00000

 k-point     5 :       0.1250    0.1250    0.3750
  band No.  band energies     occupation 
      1     -41.3794      2.00000
      2     -41.3793      2.00000
      3     -40.6928      2.00000
      4     -40.6927      2.00000
      5     -40.6921      2.00000
      6     -40.6920      2.00000
      7     -12.2917      2.00000
      8     -12.2141      2.00000
      9      -9.4551      2.00000
     10      -9.3636      2.00000
     11      -9.2878      2.00000
     12      -9.1652      2.00000
     13      -9.0688      2.00000
     14      -9.0577      2.00000
     15      -5.1234      2.00000
     16      -4.8498      2.00000
     17      -2.2272      2.00000
     18      -2.1238      2.00000
     19      -2.0544      2.00000
     20      -1.9606      2.00000
     21      -1.9019      2.00000
     22      -1.7623      2.00000
     23       0.0235      2.00000
     24       0.0950      2.00000
     25       0.1674      2.00000
     26       0.3471      2.00000
     27       0.4660      2.00000
     28       0.6371      2.00000
     29       1.0919      2.00000
     30       1.3106      2.00000
     31       1.5469      2.00000
     32       1.6628      2.00000
     33       1.7798      2.00000
     34       1.9303      2.00000
     35       2.0810      2.00000
     36       2.2910      2.00000
     37       2.4800      2.00000
     38       2.6571      2.00000
     39       5.4122      0.00000
     40       5.8055      0.00000
     41       6.4612      0.00000
     42       6.5978      0.00000
     43       7.1338      0.00000
     44       7.2576      0.00000
     45       7.4146      0.00000
     46       7.5268      0.00000
     47       8.3103      0.00000
     48       8.6507      0.00000

 k-point     6 :       0.3750    0.1250    0.3750
  band No.  band energies     occupation 
      1     -41.3794      2.00000
      2     -41.3793      2.00000
      3     -40.6927      2.00000
      4     -40.6927      2.00000
      5     -40.6922      2.00000
      6     -40.6921      2.00000
      7     -12.2678      2.00000
      8     -12.2356      2.00000
      9      -9.4848      2.00000
     10      -9.4422      2.00000
     11      -9.2199      2.00000
     12      -9.1839      2.00000
     13      -9.0439      2.00000
     14      -9.0223      2.00000
     15      -5.0459      2.00000
     16      -4.9322      2.00000
     17      -2.2605      2.00000
     18      -2.2265      2.00000
     19      -2.0139      2.00000
     20      -1.9235      2.00000
     21      -1.7894      2.00000
     22      -1.7478      2.00000
     23       0.0249      2.00000
     24       0.0504      2.00000
     25       0.2903      2.00000
     26       0.4231      2.00000
     27       0.5541      2.00000
     28       0.6709      2.00000
     29       1.0948      2.00000
     30       1.1575      2.00000
     31       1.4801      2.00000
     32       1.5565      2.00000
     33       1.7558      2.00000
     34       1.8025      2.00000
     35       1.9476      2.00000
     36       2.0461      2.00000
     37       2.5735      2.00000
     38       2.6930      2.00000
     39       5.5976      0.00000
     40       5.7722      0.00000
     41       6.6891      0.00000
     42       6.8261      0.00000
     43       7.0712      0.00000
     44       7.1714      0.00000
     45       7.5062      0.00000
     46       7.6625      0.00000
     47       8.4293      0.00000
     48       8.7131      0.00000

 k-point     7 :       0.1250    0.3750    0.3750
  band No.  band energies     occupation 
      1     -41.3794      2.00000
      2     -41.3793      2.00000
      3     -40.6928      2.00000
      4     -40.6928      2.00000
      5     -40.6920      2.00000
      6     -40.6920      2.00000
      7     -12.2516      2.00000
      8     -12.2036      2.00000
      9      -9.4489      2.00000
     10      -9.4053      2.00000
     11      -9.3061      2.00000
     12      -9.2425      2.00000
     13      -9.1275      2.00000
     14      -9.0756      2.00000
     15      -4.9345      2.00000
     16      -4.7381      2.00000
     17      -2.2226      2.00000
     18      -2.1802      2.00000
     19      -2.0751      2.00000
     20      -2.0129      2.00000
     21      -1.7701      2.00000
     22      -1.6258      2.00000
     23      -0.0275      2.00000
     24       0.2159      2.00000
     25       0.2937      2.00000
     26       0.4622      2.00000
     27       0.6225      2.00000
     28       0.7322      2.00000
     29       0.9444      2.00000
     30       1.0327      2.00000
     31       1.1690      2.00000
     32       1.3021      2.00000
     33       1.6716      2.00000
     34       2.0949      2.00000
     35       2.2419      2.00000
     36       2.3456      2.00000
     37       2.4777      2.00000
     38       2.5326      2.00000
     39       5.5629      0.00000
     40       5.9047      0.00000
     41       6.5257      0.00000
     42       6.7792      0.00000
     43       6.8176      0.00000
     44       6.9924      0.00000
     45       7.1295      0.00000
     46       7.2466      0.00000
     47       8.5111      0.00000
     48       8.6912      0.00000

 k-point     8 :       0.3750    0.3750    0.3750
  band No.  band energies     occupation 
      1     -41.3794      2.00000
      2     -41.3793      2.00000
      3     -40.6927      2.00000
      4     -40.6927      2.00000
      5     -40.6921      2.00000
      6     -40.6921      2.00000
      7     -12.2364      2.00000
      8     -12.2165      2.00000
      9      -9.4377      2.00000
     10      -9.4205      2.00000
     11      -9.3085      2.00000
     12      -9.2754      2.00000
     13      -9.1018      2.00000
     14      -9.0761      2.00000
     15      -4.8521      2.00000
     16      -4.7698      2.00000
     17      -2.2221      2.00000
     18      -2.1856      2.00000
     19      -2.0073      2.00000
     20      -1.9251      2.00000
     21      -1.7708      2.00000
     22      -1.6957      2.00000
     23      -0.1066      2.00000
     24       0.0163      2.00000
     25       0.2690      2.00000
     26       0.3574      2.00000
     27       0.5810      2.00000
     28       0.6227      2.00000
     29       1.0284      2.00000
     30       1.1041      2.00000
     31       1.3316      2.00000
     32       1.3978      2.00000
     33       1.6728      2.00000
     34       1.9035      2.00000
     35       2.2478      2.00000
     36       2.2829      2.00000
     37       2.5048      2.00000
     38       2.5976      2.00000
     39       5.7271      0.00000
     40       5.8884      0.00000
     41       6.6541      0.00000
     42       6.6729      0.00000
     43       7.0076      0.00000
     44       7.1379      0.00000
     45       7.3050      0.00000
     46       7.4033      0.00000
     47       8.5506      0.00000
     48       8.7054      0.00000


--------------------------------------------------------------------------------------------------------


 soft charge-density along one line, spin component           1
         0         1         2         3         4         5         6         7         8         9
 total charge-density along one line
 
 pseudopotential strength for first ion, spin component:           1
 29.985  37.412   0.002  -0.001   0.000   0.003  -0.002   0.000
 37.412  46.682   0.002  -0.001   0.000   0.003  -0.002   0.000
  0.002   0.002   6.574   0.001  -0.000  10.180   0.001  -0.000
 -0.001  -0.001   0.001   6.574  -0.000   0.001  10.180  -0.000
  0.000   0.000  -0.000  -0.000   6.573  -0.000  -0.000  10.178
  0.003   0.003  10.180   0.001  -0.000  15.782   0.001  -0.000
 -0.002  -0.002   0.001  10.180  -0.000   0.001  15.782  -0.000
  0.000   0.000  -0.000  -0.000  10.178  -0.000  -0.000  15.779
 total augmentation occupancy for first ion, spin component:           1
 11.118  -6.422   0.093  -0.279   0.000  -0.028   0.128   0.000
 -6.422   4.188  -0.075   0.217   0.000   0.019  -0.093   0.000
  0.093  -0.075   4.343   0.075   0.000  -1.453  -0.038   0.000
 -0.279   0.217   0.075   4.523   0.000  -0.038  -1.531   0.000
  0.000   0.000   0.000   0.000   4.232   0.000   0.000  -1.391
 -0.028   0.019  -1.453  -0.038   0.000   0.525   0.018   0.000
  0.128  -0.093  -0.038  -1.531   0.000   0.018   0.560   0.000
  0.000   0.000   0.000   0.000  -1.391   0.000   0.000   0.498


------------------------ aborting loop because EDIFF is reached ----------------------------------------


    CHARGE:  cpu time    0.0137: real time    0.0137
    FORLOC:  cpu time    0.0008: real time    0.0008
    FORNL :  cpu time    0.0342: real time    0.0342
    STRESS:  cpu time    0.1022: real time    0.1022
    FORCOR:  cpu time    0.0024: real time    0.0024
    FORHAR:  cpu time    0.0022: real time    0.0022
    MIXING:  cpu time    0.0003: real time    0.0003
    OFIELD:  cpu time    0.0000: real time    0.0000

  FORCE on cell =-STRESS in cart. coord.  units (eV):
  Direction    XX          YY          ZZ          XY          YZ          ZX
  --------------------------------------------------------------------------------------
  Alpha Z    69.86724    69.86724    69.86724
  Ewald    -921.63065  -996.47975  -824.26317    -0.00000     0.00000    -0.00000
  Hartree   217.49712   171.57469   265.28390    -0.00000     0.00000     0.00000
  E(xc)    -277.18095  -277.10269  -277.14414     0.00000     0.00000     0.00000
  Local    -649.18361  -525.50810  -785.76675     0.00000    -0.00000    -0.00000
  n-local   611.02055   609.67158   610.03324    -0.44683     0.05471     0.00075
  augment   -43.55074   -43.22586   -42.67691    -0.00000     0.00000     0.00000
  Kinetic   993.18499   991.19327   984.45713    -0.01868    -0.10910     0.05288
  Fock        0.00000     0.00000     0.00000     0.00000     0.00000     0.00000
  -------------------------------------------------------------------------------------
  Total       0.02395    -0.00963    -0.20945     0.00000     0.00000     0.00000
  in kB       0.13586    -0.05461    -1.18817     0.00000     0.00000     0.00000
  external pressure =       -0.37 kB  Pullay stress =        0.00 kB


 VOLUME and BASIS-vectors are now :
 -----------------------------------------------------------------------------
  energy-cutoff  :      420.00
  volume of cell :      282.44
      direct lattice vectors                 reciprocal lattice vectors
     7.757588179  0.000000000  0.000000000     0.128906044  0.000000000  0.000000000
     0.000000000  6.131629607  0.000000000     0.000000000  0.163088781  0.000000000
     0.000000000  0.000000000  5.937669019     0.000000000  0.000000000  0.168416258

  length of vectors
     7.757588179  6.131629607  5.937669019     0.128906044  0.163088781  0.168416258


 FORCES acting on ions
    electron-ion (+dipol)            ewald-force                    non-local-force                 convergence-correction
 -----------------------------------------------------------------------------------------------
   -.613E-10 -.126E+02 -.176E+02   -.861E-09 0.123E+02 0.175E+02   0.000E+00 0.321E+00 0.126E+00   -.132E-12 -.237E-02 -.997E-04
   0.116E-08 0.126E+02 -.176E+02   0.267E-09 -.123E+02 0.175E+02   0.000E+00 -.321E+00 0.126E+00   -.954E-13 0.237E-02 -.997E-04
   -.681E+02 0.775E+01 0.855E+01   0.692E+02 -.908E+01 -.101E+02   -.110E+01 0.134E+01 0.155E+01   -.573E-03 0.507E-03 -.617E-03
   0.681E+02 -.775E+01 0.855E+01   -.692E+02 0.908E+01 -.101E+02   0.110E+01 -.134E+01 0.155E+01   0.573E-03 -.507E-03 -.617E-03
   -.681E+02 -.775E+01 0.855E+01   0.692E+02 0.908E+01 -.101E+02   -.110E+01 -.134E+01 0.155E+01   -.573E-03 -.507E-03 -.617E-03
   0.681E+02 0.775E+01 0.855E+01   -.692E+02 -.908E+01 -.101E+02   0.110E+01 0.134E+01 0.155E+01   0.573E-03 0.507E-03 -.617E-03
   0.313E-10 -.555E+02 0.481E+02   -.689E-09 0.570E+02 -.486E+02   0.000E+00 -.153E+01 0.511E+00   -.135E-12 0.128E-02 -.180E-02
   0.302E-08 0.555E+02 0.481E+02   0.401E-09 -.570E+02 -.486E+02   0.000E+00 0.153E+01 0.511E+00   0.102E-12 -.128E-02 -.180E-02
   0.520E-10 -.464E+02 -.491E+02   -.779E-09 0.483E+02 0.515E+02   0.000E+00 -.188E+01 -.241E+01   -.853E-13 -.310E-02 0.105E-02
   0.294E-08 0.464E+02 -.491E+02   0.379E-09 -.483E+02 0.515E+02   0.000E+00 0.188E+01 -.241E+01   0.127E-12 0.310E-02 0.105E-02
   -.342E-10 0.285E+02 0.155E+02   -.508E-09 -.276E+02 -.153E+02   0.000E+00 -.899E+00 -.219E+00   0.222E-12 0.146E-02 0.104E-02
   0.191E-08 -.285E+02 0.155E+02   0.181E-09 0.276E+02 -.153E+02   0.000E+00 0.899E+00 -.219E+00   0.217E-13 -.146E-02 0.104E-02
   -.933E+01 -.209E+02 -.826E+01   0.947E+01 0.203E+02 0.752E+01   -.135E+00 0.633E+00 0.739E+00   -.138E-02 -.764E-03 0.439E-03
   0.933E+01 0.209E+02 -.826E+01   -.947E+01 -.203E+02 0.752E+01   0.135E+00 -.633E+00 0.739E+00   0.138E-02 0.764E-03 0.439E-03
   -.933E+01 0.209E+02 -.826E+01   0.947E+01 -.203E+02 0.752E+01   -.135E+00 -.633E+00 0.739E+00   -.138E-02 0.764E-03 0.439E-03
   0.933E+01 -.209E+02 -.826E+01   -.947E+01 0.203E+02 0.752E+01   0.135E+00 0.633E+00 0.739E+00   0.138E-02 -.764E-03 0.439E-03
 -----------------------------------------------------------------------------------------------
   0.280E-07 0.117E-06 -.518E+01   -.480E-13 0.213E-13 -.302E-13   0.000E+00 -.222E-15 0.518E+01   -.337E-12 -.898E-12 -.345E-03
 
 
 POSITION                                       TOTAL-FORCE (eV/Angst)
 -----------------------------------------------------------------------------------
      0.00000      1.66018      1.98831         0.000000      0.012454      0.001833
      3.87879      4.47145      4.95714         0.000000     -0.012454      0.001833
      1.62058      0.63335      1.28584        -0.006080      0.008544      0.004225
      2.25821      5.49828      4.25468         0.006080     -0.008544      0.004225
      5.49938      5.49828      4.25468        -0.006080     -0.008544      0.004225
      6.13701      0.63335      1.28584         0.006080      0.008544      0.004225
      0.00000      3.47491      1.07591         0.000000     -0.025514      0.026611
      3.87879      2.65672      4.04475         0.000000      0.025514      0.026611
      0.00000      1.90144      4.00726         0.000000      0.006905     -0.025913
      3.87879      4.23019      1.03843         0.000000     -0.006905     -0.025913
      0.00000      5.73684      5.47811         0.000000     -0.000295      0.004276
      3.87879      0.39479      2.50927         0.000000      0.000295      0.004276
      2.07394      1.66026      5.13258        -0.001085      0.000451     -0.007629
      1.80485      4.47137      2.16374         0.001085     -0.000451     -0.007629
      5.95273      4.47137      2.16374        -0.001085     -0.000451     -0.007629
      5.68365      1.66026      5.13258         0.001085      0.000451     -0.007629
 -----------------------------------------------------------------------------------
    total drift:                                0.000000      0.000000     -0.005994


--------------------------------------------------------------------------------------------------------



  FREE ENERGIE OF THE ION-ELECTRON SYSTEM (eV)
  ---------------------------------------------------
  free  energy   TOTEN  =       -76.86650777 eV

  energy  without entropy=      -76.86650777  energy(sigma->0) =      -76.86650777
 
 d Force = 0.2417577E-04[-0.112E-03, 0.161E-03]  d Energy =-0.9993155E-04 0.124E-03
 d Force =-0.3519833E-02[-0.402E-02,-0.302E-02]  d Ewald  =-0.7243135E+00 0.721E+00


--------------------------------------------------------------------------------------------------------


    POTLOK:  cpu time    0.0033: real time    0.0033


--------------------------------------------------------------------------------------------------------




--------------------------------------------------------------------------------------------------------


  
 reached required accuracy - stopping structural energy minimisation
     LOOP+:  cpu time    0.9495: real time    0.9553
    4ORBIT:  cpu time    0.0000: real time    0.0000
 BZINTS: Fermi energy:  2.814687; 76.000000 electrons
         Band energy:-654.123965;  BLOECHL correction:  0.000000

 total amount of memory used by VASP MPI-rank0    33598. kBytes
=======================================================================

   base      :      30000. kBytes
   nonlr-proj:       1240. kBytes
   fftplans  :        656. kBytes
   grid      :       1147. kBytes
   one-center:          3. kBytes
   wavefun   :        552. kBytes
 
  
  
 General timing and accounting informations for this job:
 ========================================================
  
                  Total CPU time used (sec):       14.457
                            User time (sec):       14.038
                          System time (sec):        0.419
                         Elapsed time (sec):       15.665
  
                   Maximum memory used (kb):      148880.
                   Average memory used (kb):           0.
  
                          Minor page faults:        32645
                          Major page faults:           86
                 Voluntary context switches:         2289
