unknown system                          
           1
     7.777662    0.000000    0.000000
     0.000000    6.132636    0.000000
     0.000000    0.000000    5.925665
   P    S    Li
   2   8   6
Direct configuration=     1
   0.00000000  0.26905538  0.33590109
   0.50000000  0.73094462  0.83590109
   0.20855882  0.10049433  0.21997457
   0.29144118  0.89950567  0.71997457
   0.70855882  0.89950567  0.71997457
   0.79144118  0.10049433  0.21997457
   0.00000000  0.56361010  0.17957008
   0.50000000  0.43638990  0.67957008
   0.00000000  0.31252735  0.67589874
   0.50000000  0.68747265  0.17589874
   0.00000000  0.93273017  0.91947069
   0.50000000  0.06726983  0.41947069
   0.26770890  0.27020780  0.86234832
   0.23229110  0.72979220  0.36234832
   0.76770890  0.72979220  0.36234832
   0.73229110  0.27020780  0.86234832
unknown system                          
           1
     7.768642    0.000000    0.000000
     0.000000    6.132749    0.000000
     0.000000    0.000000    5.927914
   P    S    Li
   2   8   6
Direct configuration=     2
   0.00000000  0.26899165  0.33602017
   0.50000000  0.73100835  0.83602017
   0.20836932  0.10124229  0.21898691
   0.29163068  0.89875771  0.71898691
   0.70836932  0.89875771  0.71898691
   0.79163068  0.10124229  0.21898691
   0.00000000  0.56364455  0.17983582
   0.50000000  0.43635545  0.67983582
   0.00000000  0.31246590  0.67610480
   0.50000000  0.68753410  0.17610480
   0.00000000  0.93294989  0.91981246
   0.50000000  0.06705011  0.41981246
   0.26771264  0.27034057  0.86286967
   0.23228736  0.72965943  0.36286967
   0.76771264  0.72965943  0.36286967
   0.73228736  0.27034057  0.86286967
unknown system                          
           1
     7.757490    0.000000    0.000000
     0.000000    6.132890    0.000000
     0.000000    0.000000    5.930694
   P    S    Li
   2   8   6
Direct configuration=     3
   0.00000000  0.26891286  0.33616733
   0.50000000  0.73108714  0.83616733
   0.20813475  0.10216703  0.21776626
   0.29186525  0.89783297  0.71776626
   0.70813475  0.89783297  0.71776626
   0.79186525  0.10216703  0.21776626
   0.00000000  0.56368713  0.18016424
   0.50000000  0.43631287  0.68016424
   0.00000000  0.31238994  0.67635947
   0.50000000  0.68761006  0.17635947
   0.00000000  0.93322153  0.92023484
   0.50000000  0.06677847  0.42023484
   0.26771726  0.27050472  0.86351399
   0.23228274  0.72949528  0.36351399
   0.76771726  0.72949528  0.36351399
   0.73228274  0.27050472  0.86351399
unknown system                          
           1
     7.759297    0.000000    0.000000
     0.000000    6.136684    0.000000
     0.000000    0.000000    5.929791
   P    S    Li
   2   8   6
Direct configuration=     4
   0.00000000  0.26952046  0.33647691
   0.50000000  0.73047954  0.83647691
   0.20836268  0.10248450  0.21689540
   0.29163732  0.89751550  0.71689540
   0.70836268  0.89751550  0.71689540
   0.79163732  0.10248450  0.21689540
   0.00000000  0.56390568  0.18050462
   0.50000000  0.43609432  0.68050462
   0.00000000  0.31222689  0.67623467
   0.50000000  0.68777311  0.17623467
   0.00000000  0.93346438  0.92057987
   0.50000000  0.06653562  0.42057987
   0.26774084  0.27064744  0.86394977
   0.23225916  0.72935256  0.36394977
   0.76774084  0.72935256  0.36394977
   0.73225916  0.27064744  0.86394977
unknown system                          
           1
     7.759955    0.000000    0.000000
     0.000000    6.138067    0.000000
     0.000000    0.000000    5.929462
   P    S    Li
   2   8   6
Direct configuration=     5
   0.00000000  0.26974178  0.33658976
   0.50000000  0.73025822  0.83658976
   0.20844574  0.10260014  0.21657793
   0.29155426  0.89739986  0.71657793
   0.70844574  0.89739986  0.71657793
   0.79155426  0.10260014  0.21657793
   0.00000000  0.56398529  0.18062870
   0.50000000  0.43601471  0.68062870
   0.00000000  0.31216749  0.67618917
   0.50000000  0.68783251  0.17618917
   0.00000000  0.93355284  0.92070565
   0.50000000  0.06644716  0.42070565
   0.26774944  0.27069943  0.86410863
   0.23225056  0.72930057  0.36410863
   0.76774944  0.72930057  0.36410863
   0.73225056  0.27069943  0.86410863
unknown system                          
           1
     7.759689    0.000000    0.000000
     0.000000    6.140237    0.000000
     0.000000    0.000000    5.928725
   P    S    Li
   2   8   6
Direct configuration=     6
   0.00000000  0.26988706  0.33625918
   0.50000000  0.73011294  0.83625918
   0.20851957  0.10256864  0.21660451
   0.29148043  0.89743136  0.71660451
   0.70851957  0.89743136  0.71660451
   0.79148043  0.10256864  0.21660451
   0.00000000  0.56432138  0.18077371
   0.50000000  0.43567862  0.68077371
   0.00000000  0.31203670  0.67611477
   0.50000000  0.68796330  0.17611477
   0.00000000  0.93368690  0.92084727
   0.50000000  0.06631310  0.42084727
   0.26777161  0.27073872  0.86414122
   0.23222839  0.72926128  0.36414122
   0.76777161  0.72926128  0.36414122
   0.73222839  0.27073872  0.86414122
unknown system                          
           1
     7.759096    0.000000    0.000000
     0.000000    6.145068    0.000000
     0.000000    0.000000    5.927083
   P    S    Li
   2   8   6
Direct configuration=     7
   0.00000000  0.27021045  0.33552295
   0.50000000  0.72978955  0.83552295
   0.20868396  0.10249852  0.21666370
   0.29131604  0.89750148  0.71666370
   0.70868396  0.89750148  0.71666370
   0.79131604  0.10249852  0.21666370
   0.00000000  0.56506953  0.18109666
   0.50000000  0.43493047  0.68109666
   0.00000000  0.31174555  0.67594908
   0.50000000  0.68825445  0.17594908
   0.00000000  0.93398532  0.92116267
   0.50000000  0.06601468  0.42116267
   0.26782099  0.27082620  0.86421381
   0.23217901  0.72917380  0.36421381
   0.76782099  0.72917380  0.36421381
   0.73217901  0.27082620  0.86421381
unknown system                          
           1
     7.755388    0.000000    0.000000
     0.000000    6.143668    0.000000
     0.000000    0.000000    5.924753
   P    S    Li
   2   8   6
Direct configuration=     8
   0.00000000  0.27025195  0.33530489
   0.50000000  0.72974805  0.83530489
   0.20861303  0.10263963  0.21674469
   0.29138697  0.89736037  0.71674469
   0.70861303  0.89736037  0.71674469
   0.79138697  0.10263963  0.21674469
   0.00000000  0.56536183  0.18123488
   0.50000000  0.43463817  0.68123488
   0.00000000  0.31147995  0.67558192
   0.50000000  0.68852005  0.17558192
   0.00000000  0.93423028  0.92138036
   0.50000000  0.06576972  0.42138036
   0.26779735  0.27084246  0.86424748
   0.23220265  0.72915754  0.36424748
   0.76779735  0.72915754  0.36424748
   0.73220265  0.27084246  0.86424748
unknown system                          
           1
     7.754601    0.000000    0.000000
     0.000000    6.143371    0.000000
     0.000000    0.000000    5.924259
   P    S    Li
   2   8   6
Direct configuration=     9
   0.00000000  0.27026075  0.33525861
   0.50000000  0.72973925  0.83525861
   0.20859798  0.10266957  0.21676187
   0.29140202  0.89733043  0.71676187
   0.70859798  0.89733043  0.71676187
   0.79140202  0.10266957  0.21676187
   0.00000000  0.56542385  0.18126421
   0.50000000  0.43457615  0.68126421
   0.00000000  0.31142360  0.67550400
   0.50000000  0.68857640  0.17550400
   0.00000000  0.93428226  0.92142656
   0.50000000  0.06571774  0.42142656
   0.26779233  0.27084591  0.86425463
   0.23220767  0.72915409  0.36425463
   0.76779233  0.72915409  0.36425463
   0.73220767  0.27084591  0.86425463
unknown system                          
           1
     7.754522    0.000000    0.000000
     0.000000    6.140758    0.000000
     0.000000    0.000000    5.925864
   P    S    Li
   2   8   6
Direct configuration=    10
   0.00000000  0.27040603  0.33520026
   0.50000000  0.72959397  0.83520026
   0.20864646  0.10275669  0.21673155
   0.29135354  0.89724331  0.71673155
   0.70864646  0.89724331  0.71673155
   0.79135354  0.10275669  0.21673155
   0.00000000  0.56559619  0.18126549
   0.50000000  0.43440381  0.68126549
   0.00000000  0.31119538  0.67537687
   0.50000000  0.68880462  0.17537687
   0.00000000  0.93449386  0.92160968
   0.50000000  0.06550614  0.42160968
   0.26772494  0.27083694  0.86428549
   0.23227506  0.72916306  0.36428549
   0.76772494  0.72916306  0.36428549
   0.73227506  0.27083694  0.86428549
unknown system                          
           1
     7.754285    0.000000    0.000000
     0.000000    6.132916    0.000000
     0.000000    0.000000    5.930680
   P    S    Li
   2   8   6
Direct configuration=    11
   0.00000000  0.27084205  0.33502524
   0.50000000  0.72915795  0.83502524
   0.20879190  0.10301817  0.21664061
   0.29120810  0.89698183  0.71664061
   0.70879190  0.89698183  0.71664061
   0.79120810  0.10301817  0.21664061
   0.00000000  0.56611344  0.18126931
   0.50000000  0.43388656  0.68126931
   0.00000000  0.31051043  0.67499559
   0.50000000  0.68948957  0.17499559
   0.00000000  0.93512893  0.92215890
   0.50000000  0.06487107  0.42215890
   0.26752278  0.27081002  0.86437806
   0.23247722  0.72918998  0.36437806
   0.76752278  0.72918998  0.36437806
   0.73247722  0.27081002  0.86437806
unknown system                          
           1
     7.755525    0.000000    0.000000
     0.000000    6.132433    0.000000
     0.000000    0.000000    5.933305
   P    S    Li
   2   8   6
Direct configuration=    12
   0.00000000  0.27081030  0.33496430
   0.50000000  0.72918970  0.83496430
   0.20883352  0.10312099  0.21660912
   0.29116648  0.89687901  0.71660912
   0.70883352  0.89687901  0.71660912
   0.79116648  0.10312099  0.21660912
   0.00000000  0.56634066  0.18124365
   0.50000000  0.43365934  0.68124365
   0.00000000  0.31035739  0.67495513
   0.50000000  0.68964261  0.17495513
   0.00000000  0.93531128  0.92232548
   0.50000000  0.06468872  0.42232548
   0.26745541  0.27079473  0.86438979
   0.23254459  0.72920527  0.36438979
   0.76745541  0.72920527  0.36438979
   0.73254459  0.27079473  0.86438979
unknown system                          
           1
     7.757588    0.000000    0.000000
     0.000000    6.131630    0.000000
     0.000000    0.000000    5.937669
   P    S    Li
   2   8   6
Direct configuration=    13
   0.00000000  0.27075748  0.33486301
   0.50000000  0.72924252  0.83486301
   0.20890273  0.10329197  0.21655677
   0.29109727  0.89670803  0.71655677
   0.70890273  0.89670803  0.71655677
   0.79109727  0.10329197  0.21655677
   0.00000000  0.56671852  0.18120100
   0.50000000  0.43328148  0.68120100
   0.00000000  0.31010289  0.67488790
   0.50000000  0.68989711  0.17488790
   0.00000000  0.93561453  0.92260235
   0.50000000  0.06438547  0.42260235
   0.26734340  0.27076931  0.86440929
   0.23265660  0.72923069  0.36440929
   0.76734340  0.72923069  0.36440929
   0.73265660  0.27076931  0.86440929
