  16  16   0   0
  0.1803581E+02  0.7580224E-09  0.6333473E-09  0.6010791E-09  0.5000000E-15
  1.000000000000000E-004
  CAR 
 unknown system                          
     11.27634695    -43.45046673  301      2.38323972      1.00000000
    -43.450  0.0000E+00  0.0000E+00
    -43.268  0.0000E+00  0.0000E+00
    -43.086  0.0000E+00  0.0000E+00
    -42.903  0.0000E+00  0.0000E+00
    -42.721  0.0000E+00  0.0000E+00
    -42.538  0.0000E+00  0.0000E+00
    -42.356  0.0000E+00  0.0000E+00
    -42.174  0.0000E+00  0.0000E+00
    -41.991  0.0000E+00  0.0000E+00
    -41.809  0.0000E+00  0.0000E+00
    -41.626  0.0000E+00  0.0000E+00
    -41.444  0.0000E+00  0.0000E+00
    -41.261  0.0000E+00  0.0000E+00
    -41.079  0.0000E+00  0.0000E+00
    -40.897  0.0000E+00  0.4000E+01
    -40.714  0.0000E+00  0.1200E+02
    -40.532  0.0000E+00  0.1200E+02
    -40.349  0.0000E+00  0.1200E+02
    -40.167  0.0000E+00  0.1200E+02
    -39.984  0.0000E+00  0.1200E+02
    -39.802  0.0000E+00  0.1200E+02
    -39.620  0.0000E+00  0.1200E+02
    -39.437  0.0000E+00  0.1200E+02
    -39.255  0.0000E+00  0.1200E+02
    -39.072  0.0000E+00  0.1200E+02
    -38.890  0.0000E+00  0.1200E+02
    -38.707  0.0000E+00  0.1200E+02
    -38.525  0.0000E+00  0.1200E+02
    -38.343  0.0000E+00  0.1200E+02
    -38.160  0.0000E+00  0.1200E+02
    -37.978  0.0000E+00  0.1200E+02
    -37.795  0.0000E+00  0.1200E+02
    -37.613  0.0000E+00  0.1200E+02
    -37.431  0.0000E+00  0.1200E+02
    -37.248  0.0000E+00  0.1200E+02
    -37.066  0.0000E+00  0.1200E+02
    -36.883  0.0000E+00  0.1200E+02
    -36.701  0.0000E+00  0.1200E+02
    -36.518  0.0000E+00  0.1200E+02
    -36.336  0.0000E+00  0.1200E+02
    -36.154  0.0000E+00  0.1200E+02
    -35.971  0.0000E+00  0.1200E+02
    -35.789  0.0000E+00  0.1200E+02
    -35.606  0.0000E+00  0.1200E+02
    -35.424  0.0000E+00  0.1200E+02
    -35.241  0.0000E+00  0.1200E+02
    -35.059  0.0000E+00  0.1200E+02
    -34.877  0.0000E+00  0.1200E+02
    -34.694  0.0000E+00  0.1200E+02
    -34.512  0.0000E+00  0.1200E+02
    -34.329  0.0000E+00  0.1200E+02
    -34.147  0.0000E+00  0.1200E+02
    -33.964  0.0000E+00  0.1200E+02
    -33.782  0.0000E+00  0.1200E+02
    -33.600  0.0000E+00  0.1200E+02
    -33.417  0.0000E+00  0.1200E+02
    -33.235  0.0000E+00  0.1200E+02
    -33.052  0.0000E+00  0.1200E+02
    -32.870  0.0000E+00  0.1200E+02
    -32.688  0.0000E+00  0.1200E+02
    -32.505  0.0000E+00  0.1200E+02
    -32.323  0.0000E+00  0.1200E+02
    -32.140  0.0000E+00  0.1200E+02
    -31.958  0.0000E+00  0.1200E+02
    -31.775  0.0000E+00  0.1200E+02
    -31.593  0.0000E+00  0.1200E+02
    -31.411  0.0000E+00  0.1200E+02
    -31.228  0.0000E+00  0.1200E+02
    -31.046  0.0000E+00  0.1200E+02
    -30.863  0.0000E+00  0.1200E+02
    -30.681  0.0000E+00  0.1200E+02
    -30.498  0.0000E+00  0.1200E+02
    -30.316  0.0000E+00  0.1200E+02
    -30.134  0.0000E+00  0.1200E+02
    -29.951  0.0000E+00  0.1200E+02
    -29.769  0.0000E+00  0.1200E+02
    -29.586  0.0000E+00  0.1200E+02
    -29.404  0.0000E+00  0.1200E+02
    -29.221  0.0000E+00  0.1200E+02
    -29.039  0.0000E+00  0.1200E+02
    -28.857  0.0000E+00  0.1200E+02
    -28.674  0.0000E+00  0.1200E+02
    -28.492  0.0000E+00  0.1200E+02
    -28.309  0.0000E+00  0.1200E+02
    -28.127  0.0000E+00  0.1200E+02
    -27.945  0.0000E+00  0.1200E+02
    -27.762  0.0000E+00  0.1200E+02
    -27.580  0.0000E+00  0.1200E+02
    -27.397  0.0000E+00  0.1200E+02
    -27.215  0.0000E+00  0.1200E+02
    -27.032  0.0000E+00  0.1200E+02
    -26.850  0.0000E+00  0.1200E+02
    -26.668  0.0000E+00  0.1200E+02
    -26.485  0.0000E+00  0.1200E+02
    -26.303  0.0000E+00  0.1200E+02
    -26.120  0.0000E+00  0.1200E+02
    -25.938  0.0000E+00  0.1200E+02
    -25.755  0.0000E+00  0.1200E+02
    -25.573  0.0000E+00  0.1200E+02
    -25.391  0.0000E+00  0.1200E+02
    -25.208  0.0000E+00  0.1200E+02
    -25.026  0.0000E+00  0.1200E+02
    -24.843  0.0000E+00  0.1200E+02
    -24.661  0.0000E+00  0.1200E+02
    -24.479  0.0000E+00  0.1200E+02
    -24.296  0.0000E+00  0.1200E+02
    -24.114  0.0000E+00  0.1200E+02
    -23.931  0.0000E+00  0.1200E+02
    -23.749  0.0000E+00  0.1200E+02
    -23.566  0.0000E+00  0.1200E+02
    -23.384  0.0000E+00  0.1200E+02
    -23.202  0.0000E+00  0.1200E+02
    -23.019  0.0000E+00  0.1200E+02
    -22.837  0.0000E+00  0.1200E+02
    -22.654  0.0000E+00  0.1200E+02
    -22.472  0.0000E+00  0.1200E+02
    -22.289  0.0000E+00  0.1200E+02
    -22.107  0.0000E+00  0.1200E+02
    -21.925  0.0000E+00  0.1200E+02
    -21.742  0.0000E+00  0.1200E+02
    -21.560  0.0000E+00  0.1200E+02
    -21.377  0.0000E+00  0.1200E+02
    -21.195  0.0000E+00  0.1200E+02
    -21.012  0.0000E+00  0.1200E+02
    -20.830  0.0000E+00  0.1200E+02
    -20.648  0.0000E+00  0.1200E+02
    -20.465  0.0000E+00  0.1200E+02
    -20.283  0.0000E+00  0.1200E+02
    -20.100  0.0000E+00  0.1200E+02
    -19.918  0.0000E+00  0.1200E+02
    -19.736  0.0000E+00  0.1200E+02
    -19.553  0.0000E+00  0.1200E+02
    -19.371  0.0000E+00  0.1200E+02
    -19.188  0.0000E+00  0.1200E+02
    -19.006  0.0000E+00  0.1200E+02
    -18.823  0.0000E+00  0.1200E+02
    -18.641  0.0000E+00  0.1200E+02
    -18.459  0.0000E+00  0.1200E+02
    -18.276  0.0000E+00  0.1200E+02
    -18.094  0.0000E+00  0.1200E+02
    -17.911  0.0000E+00  0.1200E+02
    -17.729  0.0000E+00  0.1200E+02
    -17.546  0.0000E+00  0.1200E+02
    -17.364  0.0000E+00  0.1200E+02
    -17.182  0.0000E+00  0.1200E+02
    -16.999  0.0000E+00  0.1200E+02
    -16.817  0.0000E+00  0.1200E+02
    -16.634  0.0000E+00  0.1200E+02
    -16.452  0.0000E+00  0.1200E+02
    -16.269  0.0000E+00  0.1200E+02
    -16.087  0.0000E+00  0.1200E+02
    -15.905  0.0000E+00  0.1200E+02
    -15.722  0.0000E+00  0.1200E+02
    -15.540  0.0000E+00  0.1200E+02
    -15.357  0.0000E+00  0.1200E+02
    -15.175  0.0000E+00  0.1200E+02
    -14.993  0.0000E+00  0.1200E+02
    -14.810  0.0000E+00  0.1200E+02
    -14.628  0.0000E+00  0.1200E+02
    -14.445  0.0000E+00  0.1200E+02
    -14.263  0.0000E+00  0.1200E+02
    -14.080  0.0000E+00  0.1200E+02
    -13.898  0.0000E+00  0.1200E+02
    -13.716  0.0000E+00  0.1200E+02
    -13.533  0.0000E+00  0.1200E+02
    -13.351  0.0000E+00  0.1200E+02
    -13.168  0.0000E+00  0.1200E+02
    -12.986  0.0000E+00  0.1200E+02
    -12.803  0.0000E+00  0.1200E+02
    -12.621  0.1324E+01  0.1201E+02
    -12.439  0.0000E+00  0.1600E+02
    -12.256  0.0000E+00  0.1600E+02
    -12.074  0.0000E+00  0.1600E+02
    -11.891  0.0000E+00  0.1600E+02
    -11.709  0.0000E+00  0.1600E+02
    -11.526  0.0000E+00  0.1600E+02
    -11.344  0.0000E+00  0.1600E+02
    -11.162  0.0000E+00  0.1600E+02
    -10.979  0.0000E+00  0.1600E+02
    -10.797  0.0000E+00  0.1600E+02
    -10.614  0.0000E+00  0.1600E+02
    -10.432  0.0000E+00  0.1600E+02
    -10.250  0.0000E+00  0.1600E+02
    -10.067  0.0000E+00  0.1600E+02
     -9.885  0.0000E+00  0.1600E+02
     -9.702  0.0000E+00  0.1600E+02
     -9.520  0.2367E+02  0.2020E+02
     -9.337  0.1296E+02  0.2795E+02
     -9.155  0.0000E+00  0.2800E+02
     -8.973  0.0000E+00  0.2800E+02
     -8.790  0.0000E+00  0.2800E+02
     -8.608  0.0000E+00  0.2800E+02
     -8.425  0.0000E+00  0.2800E+02
     -8.243  0.0000E+00  0.2800E+02
     -8.060  0.0000E+00  0.2800E+02
     -7.878  0.0000E+00  0.2800E+02
     -7.696  0.0000E+00  0.2800E+02
     -7.513  0.0000E+00  0.2800E+02
     -7.331  0.0000E+00  0.2800E+02
     -7.148  0.0000E+00  0.2800E+02
     -6.966  0.0000E+00  0.2800E+02
     -6.784  0.0000E+00  0.2800E+02
     -6.601  0.0000E+00  0.2800E+02
     -6.419  0.0000E+00  0.2800E+02
     -6.236  0.0000E+00  0.2800E+02
     -6.054  0.0000E+00  0.2800E+02
     -5.871  0.0000E+00  0.2800E+02
     -5.689  0.0000E+00  0.2800E+02
     -5.507  0.1175E+01  0.2806E+02
     -5.324  0.1089E+02  0.2907E+02
     -5.142  0.4134E+02  0.3168E+02
     -4.959  0.0000E+00  0.3200E+02
     -4.777  0.0000E+00  0.3200E+02
     -4.594  0.0000E+00  0.3200E+02
     -4.412  0.0000E+00  0.3200E+02
     -4.230  0.0000E+00  0.3200E+02
     -4.047  0.0000E+00  0.3200E+02
     -3.865  0.0000E+00  0.3200E+02
     -3.682  0.0000E+00  0.3200E+02
     -3.500  0.0000E+00  0.3200E+02
     -3.317  0.0000E+00  0.3200E+02
     -3.135  0.0000E+00  0.3200E+02
     -2.953  0.0000E+00  0.3200E+02
     -2.770  0.0000E+00  0.3200E+02
     -2.588  0.8444E+01  0.3250E+02
     -2.405  0.2053E+02  0.3523E+02
     -2.223  0.2947E+02  0.3848E+02
     -2.041  0.1886E+02  0.4319E+02
     -1.858  0.0000E+00  0.4400E+02
     -1.676  0.0000E+00  0.4400E+02
     -1.493  0.0000E+00  0.4400E+02
     -1.311  0.0000E+00  0.4400E+02
     -1.128  0.0000E+00  0.4400E+02
     -0.946  0.0000E+00  0.4400E+02
     -0.764  0.0000E+00  0.4400E+02
     -0.581  0.0000E+00  0.4400E+02
     -0.399  0.0000E+00  0.4400E+02
     -0.216  0.1576E+02  0.4501E+02
     -0.034  0.1725E+02  0.4804E+02
      0.149  0.6860E+01  0.5116E+02
      0.331  0.6426E+01  0.5220E+02
      0.513  0.6286E+01  0.5379E+02
      0.696  0.2927E+01  0.5588E+02
      0.878  0.1843E+02  0.5695E+02
      1.061  0.3680E+01  0.5987E+02
      1.243  0.1239E+02  0.6259E+02
      1.426  0.4021E+01  0.6414E+02
      1.608  0.1450E+02  0.6670E+02
      1.790  0.8270E+01  0.6961E+02
      1.973  0.2140E+02  0.7279E+02
      2.155  0.7565E+01  0.7570E+02
      2.338  0.0000E+00  0.7600E+02
      2.520  0.0000E+00  0.7600E+02
      2.702  0.0000E+00  0.7600E+02
      2.885  0.0000E+00  0.7600E+02
      3.067  0.0000E+00  0.7600E+02
      3.250  0.0000E+00  0.7600E+02
      3.432  0.0000E+00  0.7600E+02
      3.615  0.0000E+00  0.7600E+02
      3.797  0.0000E+00  0.7600E+02
      3.979  0.0000E+00  0.7600E+02
      4.162  0.0000E+00  0.7600E+02
      4.344  0.0000E+00  0.7600E+02
      4.527  0.0000E+00  0.7600E+02
      4.709  0.0000E+00  0.7600E+02
      4.892  0.0000E+00  0.7600E+02
      5.074  0.2584E+01  0.7621E+02
      5.256  0.3057E+01  0.7673E+02
      5.439  0.4799E+01  0.7772E+02
      5.621  0.5428E+01  0.7868E+02
      5.804  0.3192E+01  0.7947E+02
      5.986  0.1887E+01  0.7993E+02
      6.169  0.1403E+01  0.8014E+02
      6.351  0.1193E+02  0.8070E+02
      6.533  0.1645E+02  0.8355E+02
      6.716  0.9928E+01  0.8473E+02
      6.898  0.1119E+02  0.8750E+02
      7.081  0.1538E+02  0.8945E+02
      7.263  0.3261E+01  0.9191E+02
      7.445  0.0000E+00  0.9200E+02
      7.628  0.0000E+00  0.9200E+02
      7.810  0.0000E+00  0.9200E+02
      7.993  0.1183E+00  0.9200E+02
      8.175  0.1037E+02  0.9332E+02
      8.358  0.0000E+00  0.9400E+02
      8.540  0.9961E+01  0.9460E+02
      8.722  0.2455E+01  0.9591E+02
      8.905  0.0000E+00  0.9600E+02
      9.087  0.0000E+00  0.9600E+02
      9.270  0.0000E+00  0.9600E+02
      9.452  0.0000E+00  0.9600E+02
      9.635  0.0000E+00  0.9600E+02
      9.817  0.0000E+00  0.9600E+02
      9.999  0.0000E+00  0.9600E+02
     10.182  0.0000E+00  0.9600E+02
     10.364  0.0000E+00  0.9600E+02
     10.547  0.0000E+00  0.9600E+02
     10.729  0.0000E+00  0.9600E+02
     10.912  0.0000E+00  0.9600E+02
     11.094  0.0000E+00  0.9600E+02
     11.276  0.0000E+00  0.9600E+02
