Automatically generated mesh
       8
Reciprocal lattice
    0.00000000000000    0.00000000000000    0.00000000000000             1
    0.33333333333333    0.00000000000000    0.00000000000000             2
    0.00000000000000    0.33333333333333    0.00000000000000             2
    0.33333333333333    0.33333333333333    0.00000000000000             4
    0.00000000000000    0.00000000000000    0.33333333333333             2
    0.33333333333333    0.00000000000000    0.33333333333333             4
    0.00000000000000    0.33333333333333    0.33333333333333             4
    0.33333333333333    0.33333333333333    0.33333333333333             8
Tetrahedra
        70    0.00617283950617
         2         1         2         4         5
         2         1         3         4         5
         2         3         4         5         7
         2         2         4         5         6
         2         4         5         6         8
         2         4         5         7         8
         2         2         2         4         6
         2         2         4         4         6
         2         4         4         6         8
         2         2         4         6         6
         2         4         6         6         8
         2         4         6         8         8
         2         1         2         3         6
         2         2         3         4         6
         2         3         4         6         8
         2         1         3         5         6
         2         3         5         6         7
         2         3         6         7         8
         2         3         4         4         7
         2         3         3         4         7
         2         3         4         7         7
         2         4         4         7         8
         2         4         7         8         8
         2         4         7         7         8
         4         4         4         4         8
         4         4         4         8         8
         4         4         8         8         8
         2         3         3         4         8
         2         3         4         4         8
         2         3         4         8         8
         2         3         3         7         8
         2         3         7         7         8
         2         3         7         8         8
         2         2         3         4         7
         2         1         2         3         7
         2         1         2         5         7
         2         2         4         7         8
         2         2         6         7         8
         2         2         5         6         7
         2         2         4         4         8
         2         2         2         4         8
         2         2         2         6         8
         2         2         4         8         8
         2         2         6         8         8
         2         2         6         6         8
         2         1         3         4         8
         2         1         2         4         8
         2         1         2         6         8
         2         1         3         7         8
         2         1         5         7         8
         2         1         5         6         8
         2         5         5         6         8
         2         5         5         7         8
         2         5         7         7         8
         2         5         6         6         8
         2         5         6         8         8
         2         5         7         8         8
         4         6         6         6         8
         4         6         6         8         8
         4         6         8         8         8
         2         5         6         6         7
         2         6         6         7         8
         2         6         7         8         8
         2         5         5         6         7
         2         5         6         7         7
         2         6         7         7         8
         4         7         7         8         8
         4         7         7         7         8
         4         7         8         8         8
         6         8         8         8         8
