       N       E                     dE             d eps       ncg     rms          rms(c)
DAV:   1     0.496821901766E+03    0.49682E+03   -0.28557E+04   776   0.130E+03
DAV:   2    -0.130032940494E+02   -0.50983E+03   -0.48589E+03   936   0.310E+02
DAV:   3    -0.724284711848E+02   -0.59425E+02   -0.59079E+02  1064   0.958E+01
DAV:   4    -0.792789997121E+02   -0.68505E+01   -0.68310E+01  1400   0.306E+01
DAV:   5    -0.801233793793E+02   -0.84438E+00   -0.84424E+00  1136   0.730E+00    0.217E+01
RMM:   6    -0.777850322396E+02    0.23383E+01   -0.70140E+00   898   0.611E+00    0.146E+01
RMM:   7    -0.773689671520E+02    0.41607E+00   -0.20123E+00   982   0.371E+00    0.501E+00
RMM:   8    -0.773045295147E+02    0.64438E-01   -0.23876E-01  1029   0.145E+00    0.491E-01
RMM:   9    -0.772989856419E+02    0.55439E-02   -0.24921E-02  1141   0.472E-01    0.286E-01
RMM:  10    -0.772995185983E+02   -0.53296E-03   -0.67423E-03  1222   0.202E-01    0.112E-01
RMM:  11    -0.772996756449E+02   -0.15705E-03   -0.19738E-03  1210   0.105E-01    0.226E-02
RMM:  12    -0.772997441966E+02   -0.68552E-04   -0.80399E-04  1074   0.627E-02    0.135E-02
RMM:  13    -0.772997599978E+02   -0.15801E-04   -0.20759E-04   782   0.414E-02    0.683E-03
RMM:  14    -0.772997629750E+02   -0.29772E-05   -0.61143E-05   778   0.364E-02
   1 F= -.77299763E+02 E0= -.77299763E+02  d E =0.000000E+00
