 vasp.5.4.4.18Apr17-6-g9f103f2a35 (build Feb 28 2020 14:15:47) complex          
  
 executed on             LinuxIFC date 2022.08.06  21:59:35
 running on   64 total cores
 distrk:  each k-point on   64 cores,    1 groups
 distr:  one band on NCORES_PER_BAND=  16 cores,    4 groups


--------------------------------------------------------------------------------------------------------


 INCAR:
 POTCAR:    PAW P 26Mar2009                       
 POTCAR:    PAW S 27Mar2009                       
 POTCAR:    PAW Li_sv 10Sep2004                   
 POTCAR:    PAW P 26Mar2009                       
   VRHFIN =P : s2p3                                                             
   LEXCH  = CA                                                                  
   EATOM  =   176.5121 eV,   12.9733 Ry                                         
                                                                                
   TITEL  = PAW P 26Mar2009                                                     
   LULTRA =        F    use ultrasoft PP ?                                      
   IUNSCR =        1    unscreen: 0-lin 1-nonlin 2-no                           
   RPACOR =    1.500    partial core radius                                     
   POMASS =   30.974; ZVAL   =    5.000    mass and valenz                      
   RCORE  =    1.900    outmost cutoff radius                                   
   RWIGS  =    2.330; RWIGS  =    1.233    wigner-seitz radius (au A)           
   ENMAX  =  255.155; ENMIN  =  191.366 eV                                      
   ICORE  =        2    local potential                                         
   LCOR   =        T    correct aug charges                                     
   LPAW   =        T    paw PP                                                  
   EAUG   =  342.924                                                            
   DEXC   =    0.000                                                            
   RMAX   =    1.935    core radius for proj-oper                               
   RAUG   =    1.300    factor for augmentation sphere                          
   RDEP   =    1.931    radius for radial grids                                 
   RDEPT  =    1.780    core radius for aug-charge                              
                                                                                
   Atomic configuration                                                         
    6 entries                                                                   
     n  l   j            E        occ.                                          
     1  0  0.50     -2072.7761   2.0000                                         
     2  0  0.50      -172.9483   2.0000                                         
     2  1  1.50      -124.4644   6.0000                                         
     3  0  0.50       -14.0086   2.0000                                         
     3  1  0.50        -5.6037   3.0000                                         
     3  2  1.50        -6.8029   0.0000                                         
   Description                                                                  
     l       E           TYP  RCUT    TYP  RCUT                                 
     0    -14.0086211     23  1.900                                             
     0    -11.8189335     23  1.900                                             
     1     -5.6037292     23  1.900                                             
     1     -0.3527308     23  1.900                                             
     2     -6.8029130     23  1.900                                             
  local pseudopotential read in
  partial core-charges read in
  partial kinetic energy density read in
  atomic valenz-charges read in
  non local Contribution for L=           0  read in
    real space projection operators read in
  non local Contribution for L=           0  read in
    real space projection operators read in
  non local Contribution for L=           1  read in
    real space projection operators read in
  non local Contribution for L=           1  read in
    real space projection operators read in
    PAW grid and wavefunctions read in
 
   number of l-projection  operators is LMAX  =           4
   number of lm-projection operators is LMMAX =           8
 
 POTCAR:    PAW S 27Mar2009                       
   VRHFIN =S : s2p4                                                             
   LEXCH  = CA                                                                  
   EATOM  =   277.3745 eV,   20.3864 Ry                                         
                                                                                
   TITEL  = PAW S 27Mar2009                                                     
   LULTRA =        F    use ultrasoft PP ?                                      
   IUNSCR =        1    unscreen: 0-lin 1-nonlin 2-no                           
   RPACOR =    1.500    partial core radius                                     
   POMASS =   32.066; ZVAL   =    6.000    mass and valenz                      
   RCORE  =    1.900    outmost cutoff radius                                   
   RWIGS  =    2.200; RWIGS  =    1.164    wigner-seitz radius (au A)           
   ENMAX  =  258.602; ENMIN  =  193.952 eV                                      
   ICORE  =        2    local potential                                         
   LCOR   =        T    correct aug charges                                     
   LPAW   =        T    paw PP                                                  
   EAUG   =  335.092                                                            
   DEXC   =    0.000                                                            
   RMAX   =    1.942    core radius for proj-oper                               
   RAUG   =    1.300    factor for augmentation sphere                          
   RDEP   =    1.954    radius for radial grids                                 
   RDEPT  =    1.744    core radius for aug-charge                              
                                                                                
   Atomic configuration                                                         
    6 entries                                                                   
     n  l   j            E        occ.                                          
     1  0  0.50     -2393.1495   2.0000                                         
     2  0  0.50      -210.5411   2.0000                                         
     2  1  1.50      -156.4410   6.0000                                         
     3  0  0.50       -17.2664   2.0000                                         
     3  1  0.50        -7.1129   4.0000                                         
     3  2  1.50        -8.1635   0.0000                                         
   Description                                                                  
     l       E           TYP  RCUT    TYP  RCUT                                 
     0    -17.2664422     23  1.900                                             
     0    -15.8420823     23  1.900                                             
     1     -7.1129072     23  1.900                                             
     1     -2.8398274     23  1.900                                             
     2     -8.1634956     23  1.900                                             
  local pseudopotential read in
  partial core-charges read in
  partial kinetic energy density read in
  atomic valenz-charges read in
  non local Contribution for L=           0  read in
    real space projection operators read in
  non local Contribution for L=           0  read in
    real space projection operators read in
  non local Contribution for L=           1  read in
    real space projection operators read in
  non local Contribution for L=           1  read in
    real space projection operators read in
    PAW grid and wavefunctions read in
 
   number of l-projection  operators is LMAX  =           4
   number of lm-projection operators is LMMAX =           8
 
 POTCAR:    PAW Li_sv 10Sep2004                   
   VRHFIN =Li: 1s2s                                                             
   LEXCH  = CA                                                                  
   EATOM  =   199.5738 eV,   14.6683 Ry                                         
                                                                                
   TITEL  = PAW Li_sv 10Sep2004                                                 
   LULTRA =        F    use ultrasoft PP ?                                      
   IUNSCR =        0    unscreen: 0-lin 1-nonlin 2-no                           
   RPACOR =    0.000    partial core radius                                     
   POMASS =    7.010; ZVAL   =    3.000    mass and valenz                      
   RCORE  =    1.700    outmost cutoff radius                                   
   RWIGS  =    2.050; RWIGS  =    1.085    wigner-seitz radius (au A)           
   ENMAX  =  498.387; ENMIN  =  373.790 eV                                      
   ICORE  =        2    local potential                                         
   LCOR   =        T    correct aug charges                                     
   LPAW   =        T    paw PP                                                  
   EAUG   =  628.945                                                            
   RMAX   =    1.732    core radius for proj-oper                               
   RAUG   =    1.300    factor for augmentation sphere                          
   RDEP   =    1.728    radius for radial grids                                 
   RDEPT  =    1.329    core radius for aug-charge                              
                                                                                
   Atomic configuration                                                         
    4 entries                                                                   
     n  l   j            E        occ.                                          
     1  0  0.50       -51.0884   2.0000                                         
     2  0  0.50        -2.8766   1.0000                                         
     2  1  0.50        -2.8708   0.0000                                         
     3  2  1.50        -1.3606   0.0000                                         
   Description                                                                  
     l       E           TYP  RCUT    TYP  RCUT                                 
     0    -51.0884324     23  1.400                                             
     0     -2.8766458     23  1.700                                             
     1     -2.8708293     23  1.400                                             
     2     -1.3605826     23  1.400                                             
  local pseudopotential read in
  atomic valenz-charges read in
  non local Contribution for L=           0  read in
    real space projection operators read in
  non local Contribution for L=           0  read in
    real space projection operators read in
  non local Contribution for L=           1  read in
    real space projection operators read in
    PAW grid and wavefunctions read in
 
   number of l-projection  operators is LMAX  =           3
   number of lm-projection operators is LMMAX =           5
 
 Optimization of the real space projectors (new method)

 maximal supplied QI-value         = 19.84
 optimisation between [QCUT,QGAM] = [ 10.32, 20.83] = [ 29.81,121.55] Ry 
 Optimized for a Real-space Cutoff    1.39 Angstroem

   l    n(q)    QCUT    max X(q) W(low)/X(q) W(high)/X(q)  e(spline) 
   0      9    10.318   158.476    0.64E-04    0.80E-04    0.60E-07
   0      9    10.318   128.097    0.63E-04    0.79E-04    0.60E-07
   1      8    10.318    73.217    0.18E-03    0.19E-03    0.20E-06
   1      8    10.318    48.248    0.18E-03    0.19E-03    0.19E-06
 Optimization of the real space projectors (new method)

 maximal supplied QI-value         = 19.84
 optimisation between [QCUT,QGAM] = [ 10.32, 20.83] = [ 29.81,121.55] Ry 
 Optimized for a Real-space Cutoff    1.39 Angstroem

   l    n(q)    QCUT    max X(q) W(low)/X(q) W(high)/X(q)  e(spline) 
   0      9    10.318   180.455    0.73E-04    0.81E-04    0.62E-07
   0      9    10.318   157.733    0.72E-04    0.81E-04    0.62E-07
   1      8    10.318    66.201    0.18E-03    0.20E-03    0.20E-06
   1      8    10.318    49.617    0.18E-03    0.20E-03    0.20E-06
 Optimization of the real space projectors (new method)

 maximal supplied QI-value         = 22.11
 optimisation between [QCUT,QGAM] = [ 10.39, 20.78] = [ 30.24,120.96] Ry 
 Optimized for a Real-space Cutoff    1.20 Angstroem

   l    n(q)    QCUT    max X(q) W(low)/X(q) W(high)/X(q)  e(spline) 
   0      7    10.392    10.443    0.77E-04    0.41E-05    0.30E-07
   0      7    10.392     8.514    0.20E-03    0.36E-04    0.67E-07
   1      7    10.392     5.406    0.20E-03    0.20E-03    0.12E-06
  PAW P 26Mar2009                       :
 energy of atom  1       EATOM= -176.5121
 kinetic energy error for atom=    0.0021 (will be added to EATOM!!)
  PAW S 27Mar2009                       :
 energy of atom  2       EATOM= -277.3745
 kinetic energy error for atom=    0.0041 (will be added to EATOM!!)
  PAW Li_sv 10Sep2004                   :
 energy of atom  3       EATOM= -199.5738
 kinetic energy error for atom=    0.0564 (will be added to EATOM!!)
 
 
 POSCAR: Good luck                               
  positions in cartesian coordinates
  No initial velocities read in
 exchange correlation table for  LEXCH =        2
   RHO(1)=    0.500       N(1)  =     2000
   RHO(2)=  100.500       N(2)  =     4000
 


--------------------------------------------------------------------------------------------------------


 ion  position               nearest neighbor table
   1  0.000  0.319  0.300-   7 2.03   3 2.04   6 2.04   9 2.04
   2  0.500  0.681  0.800-   8 2.03   4 2.04   5 2.04  10 2.04
   3  0.220  0.169  0.189-   1 2.04  13 2.35  14 2.36  12 2.46
   4  0.280  0.831  0.689-   2 2.04  14 2.35  13 2.36  11 2.46
   5  0.720  0.831  0.689-   2 2.04  15 2.35  16 2.36  11 2.46
   6  0.780  0.169  0.189-   1 2.04  16 2.35  15 2.36  12 2.46
   7  0.000  0.621  0.186-   1 2.03  15 2.32  14 2.32  11 2.40
   8  0.500  0.379  0.686-   2 2.03  13 2.32  16 2.32  12 2.40
   9  0.000  0.312  0.639-   1 2.04  16 2.31  13 2.31  11 2.36
  10  0.500  0.688  0.139-   2 2.04  14 2.31  15 2.31  12 2.36
  11  0.000  0.657  0.787-   9 2.36   7 2.40   5 2.46   4 2.46
  12  0.500  0.343  0.287-  10 2.36   8 2.40   3 2.46   6 2.46
  13  0.256  0.186  0.801-   9 2.31   8 2.32   3 2.35   4 2.36
  14  0.244  0.814  0.301-  10 2.31   7 2.32   4 2.35   3 2.36
  15  0.756  0.814  0.301-  10 2.31   7 2.32   5 2.35   6 2.36
  16  0.744  0.186  0.801-   9 2.31   8 2.32   6 2.35   5 2.36
 
  LATTYP: Found a simple orthorhombic cell.
 ALAT       =     6.0107907704
 B/A-ratio  =     1.0536837587
 C/A-ratio  =     1.2611026499
  
  Lattice vectors:
  
 A1 = (   0.0000000000,   0.0000000000,  -6.0107907704)
 A2 = (   0.0000000000,  -6.3334726120,   0.0000000000)
 A3 = (  -7.5802241689,   0.0000000000,   0.0000000000)


Analysis of symmetry for initial positions (statically):
=====================================================================
 Subroutine PRICEL returns:
 Original cell was already a primitive cell.
 

 Routine SETGRP: Setting up the symmetry group for a 
 simple orthorhombic supercell.


 Subroutine GETGRP returns: Found  4 space group operations
 (whereof  2 operations were pure point group operations)
 out of a pool of  8 trial point group operations.


The static configuration has the point symmetry C_1h.
 The point group associated with its full space group is C_2v.


Analysis of symmetry for dynamics (positions and initial velocities):
=====================================================================
 Subroutine PRICEL returns:
 Original cell was already a primitive cell.
 

 Routine SETGRP: Setting up the symmetry group for a 
 simple orthorhombic supercell.


 Subroutine GETGRP returns: Found  4 space group operations
 (whereof  2 operations were pure point group operations)
 out of a pool of  8 trial point group operations.


The dynamic configuration has the point symmetry C_1h.
 The point group associated with its full space group is C_2v.


 Subroutine INISYM returns: Found  4 space group operations
 (whereof  2 operations are pure point group operations),
 and found     1 'primitive' translations

 
 
 KPOINTS: Automatic mesh                          

Automatic generation of k-mesh.
Space group operators:
 irot       det(A)        alpha          n_x          n_y          n_z        tau_x        tau_y        tau_z
    1     1.000000     0.000000     1.000000     0.000000     0.000000     0.000000     0.000000     0.000000
    2    -1.000000   180.000000     1.000000     0.000000     0.000000     0.000000     0.000000     0.000000
    3    -1.000000   180.000000     0.000000     1.000000     0.000000    -0.500000    -0.000000    -0.500000
    4     1.000000   180.000000     0.000000     0.000000     1.000000    -0.500000    -0.000000    -0.500000
 
 Subroutine IBZKPT returns following result:
 ===========================================
 
 Found      8 irreducible k-points:
 
 Following reciprocal coordinates:
            Coordinates               Weight
  0.000000  0.000000  0.000000      1.000000
  0.333333  0.000000  0.000000      2.000000
  0.000000  0.333333  0.000000      2.000000
  0.333333  0.333333  0.000000      4.000000
  0.000000  0.000000  0.333333      2.000000
  0.333333  0.000000  0.333333      4.000000
  0.000000  0.333333  0.333333      4.000000
  0.333333  0.333333  0.333333      8.000000
 
 Following cartesian coordinates:
            Coordinates               Weight
  0.000000  0.000000  0.000000      1.000000
  0.043974  0.000000  0.000000      2.000000
  0.000000  0.052630  0.000000      2.000000
  0.043974  0.052630  0.000000      4.000000
  0.000000  0.000000  0.055456      2.000000
  0.043974  0.000000  0.055456      4.000000
  0.000000  0.052630  0.055456      4.000000
  0.043974  0.052630  0.055456      8.000000
 
 TETIRR: Found     70 inequivalent tetrahedra from      162


--------------------------------------------------------------------------------------------------------




 Dimension of arrays:
   k-points           NKPTS =      8   k-points in BZ     NKDIM =      8   number of bands    NBANDS=     48
   number of dos      NEDOS =    301   number of ions     NIONS =     16
   non local maximal  LDIM  =      4   non local SUM 2l+1 LMDIM =      8
   total plane-waves  NPLWV =  90720
   max r-space proj   IRMAX =   3568   max aug-charges    IRDMAX=  10103
   dimension x,y,z NGX =    54 NGY =   42 NGZ =   40
   dimension x,y,z NGXF=   108 NGYF=   84 NGZF=   80
   support grid    NGXF=   108 NGYF=   84 NGZF=   80
   ions per type =               2   8   6
   NGX,Y,Z   is equivalent  to a cutoff of  11.84, 11.02, 11.06 a.u.
   NGXF,Y,Z  is equivalent  to a cutoff of  23.69, 22.05, 22.13 a.u.

 SYSTEM =  unknown system                          
 POSCAR =  Good luck                               

 Startparameter for this run:
   NWRITE =      2    write-flag & timer
   PREC   = accura    normal or accurate (medium, high low for compatibility)
   ISTART =      0    job   : 0-new  1-cont  2-samecut
   ICHARG =      2    charge: 1-file 2-atom 10-const
   ISPIN  =      1    spin polarized calculation?
   LNONCOLLINEAR =      F non collinear calculations
   LSORBIT =      F    spin-orbit coupling
   INIWAV =      1    electr: 0-lowe 1-rand  2-diag
   LASPH  =      F    aspherical Exc in radial PAW
   METAGGA=      F    non-selfconsistent MetaGGA calc.

 Electronic Relaxation 1
   ENCUT  =  420.0 eV  30.87 Ry    5.56 a.u.  12.67 10.58 10.04*2*pi/ulx,y,z
   ENINI  =  420.0     initial cutoff
   ENAUG  =  628.9 eV  augmentation charge cutoff
   NELM   =    100;   NELMIN=  2; NELMDL= -5     # of ELM steps 
   EDIFF  = 0.2E-04   stopping-criterion for ELM
   LREAL  =      T    real-space projection
   NLSPLINE    = F    spline interpolate recip. space projectors
   LCOMPAT=      F    compatible to vasp.4.4
   GGA_COMPAT  = T    GGA compatible to vasp.4.4-vasp.4.6
   LMAXPAW     = -100 max onsite density
   LMAXMIX     =    2 max onsite mixed and CHGCAR
   VOSKOWN=      0    Vosko Wilk Nusair interpolation
   ROPT   =   -0.00025  -0.00025  -0.00025
 Ionic relaxation
   EDIFFG = 0.2E-03   stopping-criterion for IOM
   NSW    =      0    number of steps for IOM
   NBLOCK =      1;   KBLOCK =      1    inner block; outer block 
   IBRION =     -1    ionic relax: 0-MD 1-quasi-New 2-CG
   NFREE  =      1    steps in history (QN), initial steepest desc. (CG)
   ISIF   =      7    stress and relaxation
   IWAVPR =     10    prediction:  0-non 1-charg 2-wave 3-comb
   ISYM   =      2    0-nonsym 1-usesym 2-fastsym
   LCORR  =      T    Harris-Foulkes like correction to forces

   POTIM  = 0.5000    time-step for ionic-motion
   TEIN   =    0.0    initial temperature
   TEBEG  =    0.0;   TEEND  =   0.0 temperature during run
   SMASS  =  -3.00    Nose mass-parameter (am)
   estimated Nose-frequenzy (Omega)   =  0.10E-29 period in steps =****** mass=  -0.131E-26a.u.
   SCALEE = 1.0000    scale energy and forces
   NPACO  =    256;   APACO  = 16.0  distance and # of slots for P.C.
   PSTRESS=    0.0 pullay stress

  Mass of Ions in am
   POMASS =  30.97 32.07  7.01
  Ionic Valenz
   ZVAL   =   5.00  6.00  3.00
  Atomic Wigner-Seitz radii
   RWIGS  =  -1.00 -1.00 -1.00
  virtual crystal weights 
   VCA    =   1.00  1.00  1.00
   NELECT =      76.0000    total number of electrons
   NUPDOWN=      -1.0000    fix difference up-down

 DOS related values:
   EMIN   =  10.00;   EMAX   =-10.00  energy-range for DOS
   EFERMI =   0.00
   ISMEAR =    -5;   SIGMA  =   0.20  broadening in eV -4-tet -1-fermi 0-gaus

 Electronic relaxation 2 (details)
   IALGO  =     68    algorithm
   LDIAG  =      T    sub-space diagonalisation (order eigenvalues)
   LSUBROT=      F    optimize rotation matrix (better conditioning)
   TURBO    =      0    0=normal 1=particle mesh
   IRESTART =      0    0=no restart 2=restart with 2 vectors
   NREBOOT  =      0    no. of reboots
   NMIN     =      0    reboot dimension
   EREF     =   0.00    reference energy to select bands
   IMIX   =      4    mixing-type and parameters
     AMIX     =   0.40;   BMIX     =  1.00
     AMIX_MAG =   1.60;   BMIX_MAG =  1.00
     AMIN     =   0.10
     WC   =   100.;   INIMIX=   1;  MIXPRE=   1;  MAXMIX= -45

 Intra band minimization:
   WEIMIN = 0.0000     energy-eigenvalue tresh-hold
   EBREAK =  0.10E-06  absolut break condition
   DEPER  =   0.30     relativ break condition  

   TIME   =   0.40     timestep for ELM

  volume/ion in A,a.u.               =      18.04       121.71
  Fermi-wavevector in a.u.,A,eV,Ry     =   1.049367  1.983017 14.982350  1.101172
  Thomas-Fermi vector in A             =   2.184327
 
 Write flags
   LWAVE        =      F    write WAVECAR
   LDOWNSAMPLE  =      F    k-point downsampling of WAVECAR
   LCHARG       =      F    write CHGCAR
   LVTOT        =      F    write LOCPOT, total local potential
   LVHAR        =      F    write LOCPOT, Hartree potential only
   LELF         =      F    write electronic localiz. function (ELF)
   LORBIT       =      0    0 simple, 1 ext, 2 COOP (PROOUT), +10 PAW based schemes


 Dipole corrections
   LMONO  =      F    monopole corrections only (constant potential shift)
   LDIPOL =      F    correct potential (dipole corrections)
   IDIPOL =      0    1-x, 2-y, 3-z, 4-all directions 
   EPSILON=  1.0000000 bulk dielectric constant

 Exchange correlation treatment:
   GGA     =    --    GGA type
   LEXCH   =     2    internal setting for exchange type
   VOSKOWN=      0    Vosko Wilk Nusair interpolation
   LHFCALC =     F    Hartree Fock is set to
   LHFONE  =     F    Hartree Fock one center treatment
   AEXX    =    0.0000 exact exchange contribution

 Linear response parameters
   LEPSILON=     F    determine dielectric tensor
   LRPA    =     F    only Hartree local field effects (RPA)
   LNABLA  =     F    use nabla operator in PAW spheres
   LVEL    =     F    velocity operator in full k-point grid
   LINTERFAST=   F  fast interpolation
   KINTER  =     0    interpolate to denser k-point grid
   CSHIFT  =0.1000    complex shift for real part using Kramers Kronig
   OMEGAMAX=  -1.0    maximum frequency
   DEG_THRESHOLD= 0.2000000E-02 threshold for treating states as degnerate
   RTIME   =   -0.100 relaxation time in fs
  (WPLASMAI=    0.000 imaginary part of plasma frequency in eV, 0.658/RTIME)
   DFIELD  = 0.0000000 0.0000000 0.0000000 field for delta impulse in time
 
 Orbital magnetization related:
   ORBITALMAG=     F  switch on orbital magnetization
   LCHIMAG   =     F  perturbation theory with respect to B field
   DQ        =  0.001000  dq finite difference perturbation B field
   LLRAUG    =     F  two centre corrections for induced B field



--------------------------------------------------------------------------------------------------------


 Static calculation
 charge density and potential will be updated during run
 non-spin polarized calculation
 RMM-DIIS sequential band-by-band and
  variant of blocked Davidson during initial phase
 perform sub-space diagonalisation
    before iterative eigenvector-optimisation
 modified Broyden-mixing scheme, WC =      100.0
 initial mixing is a Kerker type mixing with AMIX =  0.4000 and BMIX =      1.0000
 Hartree-type preconditioning will be used
 using additional bands           10
 real space projection scheme for non local part
 use partial core corrections
 calculate Harris-corrections to forces 
   (improved forces if not selfconsistent)
 use of overlap-Matrix (Vanderbilt PP)
 Fermi weights with tetrahedron method with Bloechl corrections


--------------------------------------------------------------------------------------------------------


  energy-cutoff  :      420.00
  volume of cell :      288.57
      direct lattice vectors                 reciprocal lattice vectors
     7.580224169  0.000000000  0.000000000     0.131922220  0.000000000  0.000000000
     0.000000000  6.333472612  0.000000000     0.000000000  0.157891265  0.000000000
     0.000000000  0.000000000  6.010790770     0.000000000  0.000000000  0.166367461

  length of vectors
     7.580224169  6.333472612  6.010790770     0.131922220  0.157891265  0.166367461


 
 k-points in units of 2pi/SCALE and weight: Automatic mesh                          
   0.00000000  0.00000000  0.00000000       0.037
   0.04397407  0.00000000  0.00000000       0.074
   0.00000000  0.05263042  0.00000000       0.074
   0.04397407  0.05263042  0.00000000       0.148
   0.00000000  0.00000000  0.05545582       0.074
   0.04397407  0.00000000  0.05545582       0.148
   0.00000000  0.05263042  0.05545582       0.148
   0.04397407  0.05263042  0.05545582       0.296
 
 k-points in reciprocal lattice and weights: Automatic mesh                          
   0.00000000  0.00000000  0.00000000       0.037
   0.33333333  0.00000000  0.00000000       0.074
   0.00000000  0.33333333  0.00000000       0.074
   0.33333333  0.33333333  0.00000000       0.148
   0.00000000  0.00000000  0.33333333       0.074
   0.33333333  0.00000000  0.33333333       0.148
   0.00000000  0.33333333  0.33333333       0.148
   0.33333333  0.33333333  0.33333333       0.296
 
 position of ions in fractional coordinates (direct lattice) 
   0.00000000  0.31938583  0.30041913
   0.50000000  0.68061417  0.80041913
   0.22019414  0.16879087  0.18917206
   0.27980586  0.83120913  0.68917206
   0.72019414  0.83120913  0.68917206
   0.77980586  0.16879087  0.18917206
   0.00000000  0.62139797  0.18562070
   0.50000000  0.37860203  0.68562070
   0.00000000  0.31198619  0.63949211
   0.50000000  0.68801381  0.13949211
   0.00000000  0.65731987  0.78738797
   0.50000000  0.34268013  0.28738797
   0.25585612  0.18649041  0.80097325
   0.24414388  0.81350959  0.30097325
   0.75585612  0.81350959  0.30097325
   0.74414388  0.18649041  0.80097325
 
 position of ions in cartesian coordinates  (Angst):
   0.00000000  2.02282141  1.80575651
   3.79011208  4.31065120  4.81115189
   1.66912095  1.06903238  1.13707367
   2.12099114  5.26444023  4.14246906
   5.45923303  5.26444023  4.14246906
   5.91110322  1.06903238  1.13707367
   0.00000000  3.93560705  1.11572720
   3.79011208  2.39786556  4.12112259
   0.00000000  1.97595599  3.84385325
   3.79011208  4.35751662  0.83845786
   0.00000000  4.16311738  4.73282432
   3.79011208  2.17035523  1.72742893
   1.93944672  1.18113191  4.81448262
   1.85066536  5.15234070  1.80908723
   5.72955881  5.15234070  1.80908723
   5.64077745  1.18113191  4.81448262
 


--------------------------------------------------------------------------------------------------------


 k-point  1 :   0.0000 0.0000 0.0000  plane waves:    5661
 k-point  2 :   0.3333 0.0000 0.0000  plane waves:    5642
 k-point  3 :   0.0000 0.3333 0.0000  plane waves:    5625
 k-point  4 :   0.3333 0.3333 0.0000  plane waves:    5615
 k-point  5 :   0.0000 0.0000 0.3333  plane waves:    5654
 k-point  6 :   0.3333 0.0000 0.3333  plane waves:    5626
 k-point  7 :   0.0000 0.3333 0.3333  plane waves:    5649
 k-point  8 :   0.3333 0.3333 0.3333  plane waves:    5643

 maximum and minimum number of plane-waves per node :       370      332

 maximum number of plane-waves:      5661
 maximum index in each direction: 
   IXMAX=   12   IYMAX=   10   IZMAX=   10
   IXMIN=  -13   IYMIN=  -10   IZMIN=  -10


 real space projection operators:
  total allocation   :       2647.62 KBytes
  max/ min on nodes  :        201.92        142.44


 parallel 3D FFT for wavefunctions:
    minimum data exchange during FFTs selected (reduces bandwidth)
 parallel 3D FFT for charge:
    minimum data exchange during FFTs selected (reduces bandwidth)


 total amount of memory used by VASP MPI-rank0    33574. kBytes
=======================================================================

   base      :      30000. kBytes
   nonlr-proj:       1209. kBytes
   fftplans  :        656. kBytes
   grid      :       1147. kBytes
   one-center:          3. kBytes
   wavefun   :        559. kBytes
 
     INWAV:  cpu time    0.0000: real time    0.0001
 Broyden mixing: mesh for mixing (old mesh)
   NGX = 25   NGY = 21   NGZ = 21
  (NGX  =108   NGY  = 84   NGZ  = 80)
  gives a total of  11025 points

 initial charge density was supplied:
 charge density of overlapping atoms calculated
 number of electron      76.0000000 magnetization 
 keeping initial charge density in first step


--------------------------------------------------------------------------------------------------------


 Maximum index for non-local projection operator          430
 Maximum index for augmentation-charges          523 (set IRDMAX)


--------------------------------------------------------------------------------------------------------


 First call to EWALD:  gamma=   0.268
 Maximum number of real-space cells 2x 3x 3
 Maximum number of reciprocal cells 3x 3x 3

    FEWALD:  cpu time    0.0016: real time    0.0017


--------------------------------------- Iteration      1(   1)  ---------------------------------------


    POTLOK:  cpu time    0.0049: real time    0.0071
    SETDIJ:  cpu time    0.0033: real time    0.0037
     EDDAV:  cpu time    0.1991: real time    0.2066
 BZINTS: Fermi energy: 14.857640; 76.000000 electrons
         Band energy:-126.722007;  BLOECHL correction: -0.111173
       DOS:  cpu time    0.0045: real time    0.0049
    --------------------------------------------
      LOOP:  cpu time    0.2119: real time    0.2223

 eigenvalue-minimisations  :   776
 total energy-change (2. order) : 0.4968683E+03  (-0.2855520E+04)
 number of electron      76.0000000 magnetization 
 augmentation part       76.0000000 magnetization 

 Free energy of the ion-electron system (eV)
  ---------------------------------------------------
  alpha Z        PSCENC =        68.38118764
  Ewald energy   TEWEN  =     -2731.37284465
  -Hartree energ DENC   =      -617.39176768
  -exchange      EXHF   =         0.00000000
  -V(xc)+E(xc)   XCENC  =       181.78366004
  PAW double counting   =      2494.22442938    -2541.12215007
  entropy T*S    EENTRO =         0.00000000
  eigenvalues    EBANDS =      -126.72200679
  atomic energy  EATOM  =      3769.08782378
  Solvation  Ediel_sol  =         0.00000000
  ---------------------------------------------------
  free energy    TOTEN  =       496.86833164 eV

  energy without entropy =      496.86833164  energy(sigma->0) =      496.86833164


--------------------------------------------------------------------------------------------------------




--------------------------------------- Iteration      1(   2)  ---------------------------------------


     EDDAV:  cpu time    0.2007: real time    0.2012
 BZINTS: Fermi energy:  4.788209; 76.000000 electrons
         Band energy:-637.322454;  BLOECHL correction:  0.000000
       DOS:  cpu time    0.0009: real time    0.0009
    --------------------------------------------
      LOOP:  cpu time    0.2016: real time    0.2021

 eigenvalue-minimisations  :   944
 total energy-change (2. order) :-0.5106004E+03  (-0.4868720E+03)
 number of electron      76.0000000 magnetization 
 augmentation part       76.0000000 magnetization 

 Free energy of the ion-electron system (eV)
  ---------------------------------------------------
  alpha Z        PSCENC =        68.38118764
  Ewald energy   TEWEN  =     -2731.37284465
  -Hartree energ DENC   =      -617.39176768
  -exchange      EXHF   =         0.00000000
  -V(xc)+E(xc)   XCENC  =       181.78366004
  PAW double counting   =      2494.22442938    -2541.12215007
  entropy T*S    EENTRO =         0.00000000
  eigenvalues    EBANDS =      -637.32245390
  atomic energy  EATOM  =      3769.08782378
  Solvation  Ediel_sol  =         0.00000000
  ---------------------------------------------------
  free energy    TOTEN  =       -13.73211547 eV

  energy without entropy =      -13.73211547  energy(sigma->0) =      -13.73211547


--------------------------------------------------------------------------------------------------------




--------------------------------------- Iteration      1(   3)  ---------------------------------------


     EDDAV:  cpu time    0.2263: real time    0.2267
 BZINTS: Fermi energy:  1.584901; 76.000000 electrons
         Band energy:-696.162679;  BLOECHL correction:  0.000000
       DOS:  cpu time    0.0008: real time    0.0008
    --------------------------------------------
      LOOP:  cpu time    0.2271: real time    0.2274

 eigenvalue-minimisations  :  1080
 total energy-change (2. order) :-0.5884023E+02  (-0.5852362E+02)
 number of electron      76.0000000 magnetization 
 augmentation part       76.0000000 magnetization 

 Free energy of the ion-electron system (eV)
  ---------------------------------------------------
  alpha Z        PSCENC =        68.38118764
  Ewald energy   TEWEN  =     -2731.37284465
  -Hartree energ DENC   =      -617.39176768
  -exchange      EXHF   =         0.00000000
  -V(xc)+E(xc)   XCENC  =       181.78366004
  PAW double counting   =      2494.22442938    -2541.12215007
  entropy T*S    EENTRO =         0.00000000
  eigenvalues    EBANDS =      -696.16267950
  atomic energy  EATOM  =      3769.08782378
  Solvation  Ediel_sol  =         0.00000000
  ---------------------------------------------------
  free energy    TOTEN  =       -72.57234106 eV

  energy without entropy =      -72.57234106  energy(sigma->0) =      -72.57234106


--------------------------------------------------------------------------------------------------------




--------------------------------------- Iteration      1(   4)  ---------------------------------------


     EDDAV:  cpu time    0.2786: real time    0.2789
 BZINTS: Fermi energy:  1.501010; 76.000000 electrons
         Band energy:-702.973652;  BLOECHL correction:  0.000000
       DOS:  cpu time    0.0007: real time    0.0007
    --------------------------------------------
      LOOP:  cpu time    0.2793: real time    0.2795

 eigenvalue-minimisations  :  1416
 total energy-change (2. order) :-0.6810973E+01  (-0.6792200E+01)
 number of electron      76.0000000 magnetization 
 augmentation part       76.0000000 magnetization 

 Free energy of the ion-electron system (eV)
  ---------------------------------------------------
  alpha Z        PSCENC =        68.38118764
  Ewald energy   TEWEN  =     -2731.37284465
  -Hartree energ DENC   =      -617.39176768
  -exchange      EXHF   =         0.00000000
  -V(xc)+E(xc)   XCENC  =       181.78366004
  PAW double counting   =      2494.22442938    -2541.12215007
  entropy T*S    EENTRO =         0.00000000
  eigenvalues    EBANDS =      -702.97365215
  atomic energy  EATOM  =      3769.08782378
  Solvation  Ediel_sol  =         0.00000000
  ---------------------------------------------------
  free energy    TOTEN  =       -79.38331371 eV

  energy without entropy =      -79.38331371  energy(sigma->0) =      -79.38331371


--------------------------------------------------------------------------------------------------------




--------------------------------------- Iteration      1(   5)  ---------------------------------------


     EDDAV:  cpu time    0.2350: real time    0.2353
 BZINTS: Fermi energy:  1.509050; 76.000000 electrons
         Band energy:-703.806570;  BLOECHL correction:  0.000000
       DOS:  cpu time    0.0008: real time    0.0008
    CHARGE:  cpu time    0.0163: real time    0.0163
    MIXING:  cpu time    0.0013: real time    0.0022
    --------------------------------------------
      LOOP:  cpu time    0.2534: real time    0.2545

 eigenvalue-minimisations  :  1128
 total energy-change (2. order) :-0.8329181E+00  (-0.8327978E+00)
 number of electron      76.0000023 magnetization 
 augmentation part       -1.8393046 magnetization 

 Broyden mixing:
  rms(total) = 0.21727E+01    rms(broyden)= 0.21724E+01
  rms(prec ) = 0.24508E+01
  weight for this iteration     100.00

 Free energy of the ion-electron system (eV)
  ---------------------------------------------------
  alpha Z        PSCENC =        68.38118764
  Ewald energy   TEWEN  =     -2731.37284465
  -Hartree energ DENC   =      -617.39176768
  -exchange      EXHF   =         0.00000000
  -V(xc)+E(xc)   XCENC  =       181.78366004
  PAW double counting   =      2494.22442938    -2541.12215007
  entropy T*S    EENTRO =         0.00000000
  eigenvalues    EBANDS =      -703.80657024
  atomic energy  EATOM  =      3769.08782378
  Solvation  Ediel_sol  =         0.00000000
  ---------------------------------------------------
  free energy    TOTEN  =       -80.21623181 eV

  energy without entropy =      -80.21623181  energy(sigma->0) =      -80.21623181


--------------------------------------------------------------------------------------------------------




--------------------------------------- Iteration      1(   6)  ---------------------------------------


    POTLOK:  cpu time    0.0032: real time    0.0035
    SETDIJ:  cpu time    0.0010: real time    0.0010
    EDDIAG:  cpu time    0.0506: real time    0.0515
  RMM-DIIS:  cpu time    0.0807: real time    0.0808
    ORTHCH:  cpu time    0.0069: real time    0.0069
 BZINTS: Fermi energy:  2.040995; 76.000000 electrons
         Band energy:-686.882819;  BLOECHL correction:  0.000000
       DOS:  cpu time    0.0008: real time    0.0008
    CHARGE:  cpu time    0.0150: real time    0.0150
    MIXING:  cpu time    0.0005: real time    0.0005
    --------------------------------------------
      LOOP:  cpu time    0.1587: real time    0.1599

 eigenvalue-minimisations  :   885
 total energy-change (2. order) : 0.2319260E+01  (-0.7022723E+00)
 number of electron      76.0000023 magnetization 
 augmentation part       -1.7837952 magnetization 

 Broyden mixing:
  rms(total) = 0.14625E+01    rms(broyden)= 0.14625E+01
  rms(prec ) = 0.15282E+01
  weight for this iteration     100.00

 eigenvalues of (default mixing * dielectric matrix)
  average eigenvalue GAMMA=   2.3537
  2.3537

 Free energy of the ion-electron system (eV)
  ---------------------------------------------------
  alpha Z        PSCENC =        68.38118764
  Ewald energy   TEWEN  =     -2731.37284465
  -Hartree energ DENC   =      -632.10990008
  -exchange      EXHF   =         0.00000000
  -V(xc)+E(xc)   XCENC  =       183.57415958
  PAW double counting   =      3960.41777390    -4008.99235219
  entropy T*S    EENTRO =         0.00000000
  eigenvalues    EBANDS =      -686.88281929
  atomic energy  EATOM  =      3769.08782378
  Solvation  Ediel_sol  =         0.00000000
  ---------------------------------------------------
  free energy    TOTEN  =       -77.89697132 eV

  energy without entropy =      -77.89697132  energy(sigma->0) =      -77.89697132


--------------------------------------------------------------------------------------------------------




--------------------------------------- Iteration      1(   7)  ---------------------------------------


    POTLOK:  cpu time    0.0030: real time    0.0033
    SETDIJ:  cpu time    0.0011: real time    0.0011
    EDDIAG:  cpu time    0.0499: real time    0.0499
  RMM-DIIS:  cpu time    0.0878: real time    0.0878
    ORTHCH:  cpu time    0.0067: real time    0.0067
 BZINTS: Fermi energy:  2.275671; 76.000000 electrons
         Band energy:-672.309084;  BLOECHL correction:  0.000000
       DOS:  cpu time    0.0008: real time    0.0008
    CHARGE:  cpu time    0.0150: real time    0.0150
    MIXING:  cpu time    0.0005: real time    0.0005
    --------------------------------------------
      LOOP:  cpu time    0.1649: real time    0.1652

 eigenvalue-minimisations  :   972
 total energy-change (2. order) : 0.4204298E+00  (-0.1995855E+00)
 number of electron      76.0000023 magnetization 
 augmentation part       -1.7440605 magnetization 

 Broyden mixing:
  rms(total) = 0.49914E+00    rms(broyden)= 0.49914E+00
  rms(prec ) = 0.52388E+00
  weight for this iteration     100.00

 eigenvalues of (default mixing * dielectric matrix)
  average eigenvalue GAMMA=   1.9184
  1.3938  2.4430

 Free energy of the ion-electron system (eV)
  ---------------------------------------------------
  alpha Z        PSCENC =        68.38118764
  Ewald energy   TEWEN  =     -2731.37284465
  -Hartree energ DENC   =      -646.56559085
  -exchange      EXHF   =         0.00000000
  -V(xc)+E(xc)   XCENC  =       185.23120129
  PAW double counting   =      6432.07460187    -6482.00383633
  entropy T*S    EENTRO =         0.00000000
  eigenvalues    EBANDS =      -672.30908423
  atomic energy  EATOM  =      3769.08782378
  Solvation  Ediel_sol  =         0.00000000
  ---------------------------------------------------
  free energy    TOTEN  =       -77.47654148 eV

  energy without entropy =      -77.47654148  energy(sigma->0) =      -77.47654148


--------------------------------------------------------------------------------------------------------




--------------------------------------- Iteration      1(   8)  ---------------------------------------


    POTLOK:  cpu time    0.0030: real time    0.0033
    SETDIJ:  cpu time    0.0011: real time    0.0011
    EDDIAG:  cpu time    0.0492: real time    0.0492
  RMM-DIIS:  cpu time    0.0913: real time    0.0913
    ORTHCH:  cpu time    0.0067: real time    0.0067
 BZINTS: Fermi energy:  2.307658; 76.000000 electrons
         Band energy:-669.946935;  BLOECHL correction:  0.000000
       DOS:  cpu time    0.0008: real time    0.0008
    CHARGE:  cpu time    0.0150: real time    0.0150
    MIXING:  cpu time    0.0005: real time    0.0005
    --------------------------------------------
      LOOP:  cpu time    0.1677: real time    0.1680

 eigenvalue-minimisations  :  1005
 total energy-change (2. order) : 0.6487487E-01  (-0.2319231E-01)
 number of electron      76.0000023 magnetization 
 augmentation part       -1.7594715 magnetization 

 Broyden mixing:
  rms(total) = 0.48862E-01    rms(broyden)= 0.48839E-01
  rms(prec ) = 0.62976E-01
  weight for this iteration     100.00

 eigenvalues of (default mixing * dielectric matrix)
  average eigenvalue GAMMA=   1.6267
  2.3259  1.0357  1.5185

 Free energy of the ion-electron system (eV)
  ---------------------------------------------------
  alpha Z        PSCENC =        68.38118764
  Ewald energy   TEWEN  =     -2731.37284465
  -Hartree energ DENC   =      -648.98741400
  -exchange      EXHF   =         0.00000000
  -V(xc)+E(xc)   XCENC  =       185.52284550
  PAW double counting   =      7493.54613287    -7543.64246285
  entropy T*S    EENTRO =         0.00000000
  eigenvalues    EBANDS =      -669.94693489
  atomic energy  EATOM  =      3769.08782378
  Solvation  Ediel_sol  =         0.00000000
  ---------------------------------------------------
  free energy    TOTEN  =       -77.41166661 eV

  energy without entropy =      -77.41166661  energy(sigma->0) =      -77.41166661


--------------------------------------------------------------------------------------------------------




--------------------------------------- Iteration      1(   9)  ---------------------------------------


    POTLOK:  cpu time    0.0031: real time    0.0034
    SETDIJ:  cpu time    0.0010: real time    0.0010
    EDDIAG:  cpu time    0.0501: real time    0.0501
  RMM-DIIS:  cpu time    0.1050: real time    0.1051
    ORTHCH:  cpu time    0.0068: real time    0.0068
 BZINTS: Fermi energy:  2.302239; 76.000000 electrons
         Band energy:-670.742941;  BLOECHL correction:  0.000000
       DOS:  cpu time    0.0008: real time    0.0008
    CHARGE:  cpu time    0.0148: real time    0.0148
    MIXING:  cpu time    0.0006: real time    0.0006
    --------------------------------------------
      LOOP:  cpu time    0.1823: real time    0.1826

 eigenvalue-minimisations  :  1166
 total energy-change (2. order) : 0.5486159E-02  (-0.2283620E-02)
 number of electron      76.0000023 magnetization 
 augmentation part       -1.7732925 magnetization 

 Broyden mixing:
  rms(total) = 0.28603E-01    rms(broyden)= 0.28590E-01
  rms(prec ) = 0.30602E-01
  weight for this iteration     100.00

 eigenvalues of (default mixing * dielectric matrix)
  average eigenvalue GAMMA=   1.8149
  2.3346  2.3346  1.2951  1.2951

 Free energy of the ion-electron system (eV)
  ---------------------------------------------------
  alpha Z        PSCENC =        68.38118764
  Ewald energy   TEWEN  =     -2731.37284465
  -Hartree energ DENC   =      -648.20766953
  -exchange      EXHF   =         0.00000000
  -V(xc)+E(xc)   XCENC  =       185.47496020
  PAW double counting   =      7390.09360006    -7440.12029687
  entropy T*S    EENTRO =         0.00000000
  eigenvalues    EBANDS =      -670.74294109
  atomic energy  EATOM  =      3769.08782378
  Solvation  Ediel_sol  =         0.00000000
  ---------------------------------------------------
  free energy    TOTEN  =       -77.40618045 eV

  energy without entropy =      -77.40618045  energy(sigma->0) =      -77.40618045


--------------------------------------------------------------------------------------------------------




--------------------------------------- Iteration      1(  10)  ---------------------------------------


    POTLOK:  cpu time    0.0030: real time    0.0033
    SETDIJ:  cpu time    0.0011: real time    0.0011
    EDDIAG:  cpu time    0.0498: real time    0.0499
  RMM-DIIS:  cpu time    0.1110: real time    0.1110
    ORTHCH:  cpu time    0.0068: real time    0.0068
 BZINTS: Fermi energy:  2.303754; 76.000000 electrons
         Band energy:-670.691817;  BLOECHL correction:  0.000000
       DOS:  cpu time    0.0008: real time    0.0008
    CHARGE:  cpu time    0.0150: real time    0.0150
    MIXING:  cpu time    0.0006: real time    0.0006
    --------------------------------------------
      LOOP:  cpu time    0.1881: real time    0.1884

 eigenvalue-minimisations  :  1218
 total energy-change (2. order) :-0.4054464E-03  (-0.5559945E-03)
 number of electron      76.0000023 magnetization 
 augmentation part       -1.7782882 magnetization 

 Broyden mixing:
  rms(total) = 0.10717E-01    rms(broyden)= 0.10703E-01
  rms(prec ) = 0.12589E-01
  weight for this iteration     100.00

 eigenvalues of (default mixing * dielectric matrix)
  average eigenvalue GAMMA=   1.7887
  2.3593  2.3593  1.9880  0.9745  1.2627

 Free energy of the ion-electron system (eV)
  ---------------------------------------------------
  alpha Z        PSCENC =        68.38118764
  Ewald energy   TEWEN  =     -2731.37284465
  -Hartree energ DENC   =      -648.28241084
  -exchange      EXHF   =         0.00000000
  -V(xc)+E(xc)   XCENC  =       185.47620258
  PAW double counting   =      7346.07094871    -7396.07567622
  entropy T*S    EENTRO =         0.00000000
  eigenvalues    EBANDS =      -670.69181690
  atomic energy  EATOM  =      3769.08782378
  Solvation  Ediel_sol  =         0.00000000
  ---------------------------------------------------
  free energy    TOTEN  =       -77.40658590 eV

  energy without entropy =      -77.40658590  energy(sigma->0) =      -77.40658590


--------------------------------------------------------------------------------------------------------




--------------------------------------- Iteration      1(  11)  ---------------------------------------


    POTLOK:  cpu time    0.0031: real time    0.0034
    SETDIJ:  cpu time    0.0011: real time    0.0011
    EDDIAG:  cpu time    0.0522: real time    0.0523
  RMM-DIIS:  cpu time    0.1138: real time    0.1138
    ORTHCH:  cpu time    0.0067: real time    0.0067
 BZINTS: Fermi energy:  2.305189; 76.000000 electrons
         Band energy:-670.358716;  BLOECHL correction:  0.000000
       DOS:  cpu time    0.0008: real time    0.0008
    CHARGE:  cpu time    0.0150: real time    0.0150
    MIXING:  cpu time    0.0006: real time    0.0006
    --------------------------------------------
      LOOP:  cpu time    0.1934: real time    0.1938

 eigenvalue-minimisations  :  1209
 total energy-change (2. order) :-0.1634471E-03  (-0.2048027E-03)
 number of electron      76.0000023 magnetization 
 augmentation part       -1.7792413 magnetization 

 Broyden mixing:
  rms(total) = 0.24413E-02    rms(broyden)= 0.24214E-02
  rms(prec ) = 0.33496E-02
  weight for this iteration     100.00

 eigenvalues of (default mixing * dielectric matrix)
  average eigenvalue GAMMA=   1.6833
  2.5418  2.5418  1.6999  1.3071  1.0044  1.0044

 Free energy of the ion-electron system (eV)
  ---------------------------------------------------
  alpha Z        PSCENC =        68.38118764
  Ewald energy   TEWEN  =     -2731.37284465
  -Hartree energ DENC   =      -648.64940352
  -exchange      EXHF   =         0.00000000
  -V(xc)+E(xc)   XCENC  =       185.50930352
  PAW double counting   =      7340.19605167    -7390.20015203
  entropy T*S    EENTRO =         0.00000000
  eigenvalues    EBANDS =      -670.35871575
  atomic energy  EATOM  =      3769.08782378
  Solvation  Ediel_sol  =         0.00000000
  ---------------------------------------------------
  free energy    TOTEN  =       -77.40674935 eV

  energy without entropy =      -77.40674935  energy(sigma->0) =      -77.40674935


--------------------------------------------------------------------------------------------------------




--------------------------------------- Iteration      1(  12)  ---------------------------------------


    POTLOK:  cpu time    0.0031: real time    0.0034
    SETDIJ:  cpu time    0.0011: real time    0.0011
    EDDIAG:  cpu time    0.0508: real time    0.0508
  RMM-DIIS:  cpu time    0.0992: real time    0.0993
    ORTHCH:  cpu time    0.0068: real time    0.0068
 BZINTS: Fermi energy:  2.304028; 76.000000 electrons
         Band energy:-670.376360;  BLOECHL correction:  0.000000
       DOS:  cpu time    0.0008: real time    0.0008
    CHARGE:  cpu time    0.0149: real time    0.0149
    MIXING:  cpu time    0.0006: real time    0.0006
    --------------------------------------------
      LOOP:  cpu time    0.1773: real time    0.1776

 eigenvalue-minimisations  :  1089
 total energy-change (2. order) :-0.6879035E-04  (-0.8559255E-04)
 number of electron      76.0000023 magnetization 
 augmentation part       -1.7807539 magnetization 

 Broyden mixing:
  rms(total) = 0.14099E-02    rms(broyden)= 0.13946E-02
  rms(prec ) = 0.16897E-02
  weight for this iteration     100.00

 eigenvalues of (default mixing * dielectric matrix)
  average eigenvalue GAMMA=   1.6807
  2.5838  2.5838  1.8043  1.8043  1.1920  1.0561  0.7409

 Free energy of the ion-electron system (eV)
  ---------------------------------------------------
  alpha Z        PSCENC =        68.38118764
  Ewald energy   TEWEN  =     -2731.37284465
  -Hartree energ DENC   =      -648.64262262
  -exchange      EXHF   =         0.00000000
  -V(xc)+E(xc)   XCENC  =       185.50990628
  PAW double counting   =      7334.72644782    -7384.72035592
  entropy T*S    EENTRO =         0.00000000
  eigenvalues    EBANDS =      -670.37636046
  atomic energy  EATOM  =      3769.08782378
  Solvation  Ediel_sol  =         0.00000000
  ---------------------------------------------------
  free energy    TOTEN  =       -77.40681814 eV

  energy without entropy =      -77.40681814  energy(sigma->0) =      -77.40681814


--------------------------------------------------------------------------------------------------------




--------------------------------------- Iteration      1(  13)  ---------------------------------------


    POTLOK:  cpu time    0.0031: real time    0.0034
    SETDIJ:  cpu time    0.0011: real time    0.0011
    EDDIAG:  cpu time    0.0492: real time    0.0492
  RMM-DIIS:  cpu time    0.0718: real time    0.0718
    ORTHCH:  cpu time    0.0069: real time    0.0069
 BZINTS: Fermi energy:  2.303282; 76.000000 electrons
         Band energy:-670.360668;  BLOECHL correction:  0.000000
       DOS:  cpu time    0.0008: real time    0.0008
    CHARGE:  cpu time    0.0149: real time    0.0149
    MIXING:  cpu time    0.0006: real time    0.0006
    --------------------------------------------
      LOOP:  cpu time    0.1485: real time    0.1487

 eigenvalue-minimisations  :   772
 total energy-change (2. order) :-0.2136747E-04  (-0.2685075E-04)
 number of electron      76.0000023 magnetization 
 augmentation part       -1.7812748 magnetization 

 Broyden mixing:
  rms(total) = 0.68932E-03    rms(broyden)= 0.68165E-03
  rms(prec ) = 0.86306E-03
  weight for this iteration     100.00

 eigenvalues of (default mixing * dielectric matrix)
  average eigenvalue GAMMA=   1.7650
  3.2699  2.6897  2.0381  2.0381  1.1642  1.1642  0.8781  0.8781

 Free energy of the ion-electron system (eV)
  ---------------------------------------------------
  alpha Z        PSCENC =        68.38118764
  Ewald energy   TEWEN  =     -2731.37284465
  -Hartree energ DENC   =      -648.66938880
  -exchange      EXHF   =         0.00000000
  -V(xc)+E(xc)   XCENC  =       185.51279968
  PAW double counting   =      7337.39798919    -7387.38373824
  entropy T*S    EENTRO =         0.00000000
  eigenvalues    EBANDS =      -670.36066811
  atomic energy  EATOM  =      3769.08782378
  Solvation  Ediel_sol  =         0.00000000
  ---------------------------------------------------
  free energy    TOTEN  =       -77.40683951 eV

  energy without entropy =      -77.40683951  energy(sigma->0) =      -77.40683951


--------------------------------------------------------------------------------------------------------




--------------------------------------- Iteration      1(  14)  ---------------------------------------


    POTLOK:  cpu time    0.0032: real time    0.0035
    SETDIJ:  cpu time    0.0011: real time    0.0011
    EDDIAG:  cpu time    0.0500: real time    0.0500
  RMM-DIIS:  cpu time    0.0748: real time    0.0748
    ORTHCH:  cpu time    0.0072: real time    0.0072
 BZINTS: Fermi energy:  2.302702; 76.000000 electrons
         Band energy:-670.347321;  BLOECHL correction:  0.000000
       DOS:  cpu time    0.0008: real time    0.0008
    --------------------------------------------
      LOOP:  cpu time    0.1369: real time    0.1372

 eigenvalue-minimisations  :   798
 total energy-change (2. order) :-0.7541492E-05  (-0.1122130E-04)
 number of electron      76.0000023 magnetization 
 augmentation part       -1.7812748 magnetization 

 Free energy of the ion-electron system (eV)
  ---------------------------------------------------
  alpha Z        PSCENC =        68.38118764
  Ewald energy   TEWEN  =     -2731.37284465
  -Hartree energ DENC   =      -648.69323807
  -exchange      EXHF   =         0.00000000
  -V(xc)+E(xc)   XCENC  =       185.51493147
  PAW double counting   =      7337.31309543    -7387.29048119
  entropy T*S    EENTRO =         0.00000000
  eigenvalues    EBANDS =      -670.34732145
  atomic energy  EATOM  =      3769.08782378
  Solvation  Ediel_sol  =         0.00000000
  ---------------------------------------------------
  free energy    TOTEN  =       -77.40684705 eV

  energy without entropy =      -77.40684705  energy(sigma->0) =      -77.40684705


--------------------------------------------------------------------------------------------------------




 average (electrostatic) potential at core
  the test charge radii are     0.9587  0.9698  0.7079
  (the norm of the test charge is              1.0000)
       1 -88.4066       2 -88.4066       3 -88.3034       4 -88.3034       5 -88.3034
       6 -88.3034       7 -88.3065       8 -88.3065       9 -88.2835      10 -88.2835
      11 -63.9130      12 -63.9130      13 -63.5160      14 -63.5160      15 -63.5160
      16 -63.5160
 
 
 
 E-fermi :   2.3027     XC(G=0):  -9.1027     alpha+bet :-10.4659


 k-point     1 :       0.0000    0.0000    0.0000
  band No.  band energies     occupation 
      1     -41.0762      2.00000
      2     -41.0762      2.00000
      3     -40.6985      2.00000
      4     -40.6978      2.00000
      5     -40.6977      2.00000
      6     -40.6970      2.00000
      7     -12.6465      2.00000
      8     -12.4768      2.00000
      9      -9.5811      2.00000
     10      -9.5284      2.00000
     11      -9.4356      2.00000
     12      -9.4146      2.00000
     13      -9.3512      2.00000
     14      -9.3183      2.00000
     15      -5.6516      2.00000
     16      -5.0889      2.00000
     17      -2.6590      2.00000
     18      -2.6526      2.00000
     19      -2.5292      2.00000
     20      -2.2222      2.00000
     21      -2.1654      2.00000
     22      -2.1439      2.00000
     23      -0.0301      2.00000
     24      -0.0085      2.00000
     25       0.1870      2.00000
     26       0.2369      2.00000
     27       0.3428      2.00000
     28       0.5357      2.00000
     29       0.7126      2.00000
     30       1.0533      2.00000
     31       1.2663      2.00000
     32       1.3463      2.00000
     33       1.7508      2.00000
     34       1.8459      2.00000
     35       1.8497      2.00000
     36       1.8976      2.00000
     37       1.9166      2.00000
     38       2.0886      2.00000
     39       5.6395      0.00000
     40       5.7181      0.00000
     41       5.8847      0.00000
     42       6.3097      0.00000
     43       6.4224      0.00000
     44       7.1258      0.00000
     45       7.2225      0.00000
     46       7.3018      0.00000
     47       8.0489      0.00000
     48       8.4005      0.00000

 k-point     2 :       0.3333    0.0000    0.0000
  band No.  band energies     occupation 
      1     -41.0762      2.00000
      2     -41.0762      2.00000
      3     -40.6983      2.00000
      4     -40.6979      2.00000
      5     -40.6975      2.00000
      6     -40.6971      2.00000
      7     -12.6052      2.00000
      8     -12.5204      2.00000
      9      -9.5530      2.00000
     10      -9.4905      2.00000
     11      -9.4410      2.00000
     12      -9.4278      2.00000
     13      -9.3942      2.00000
     14      -9.3403      2.00000
     15      -5.4768      2.00000
     16      -5.1959      2.00000
     17      -2.6935      2.00000
     18      -2.6526      2.00000
     19      -2.5335      2.00000
     20      -2.2697      2.00000
     21      -2.1601      2.00000
     22      -2.1443      2.00000
     23      -0.0873      2.00000
     24       0.0141      2.00000
     25       0.1920      2.00000
     26       0.4133      2.00000
     27       0.4316      2.00000
     28       0.5845      2.00000
     29       0.9252      2.00000
     30       1.0942      2.00000
     31       1.2465      2.00000
     32       1.3950      2.00000
     33       1.5183      2.00000
     34       1.5205      2.00000
     35       1.7232      2.00000
     36       1.8260      2.00000
     37       1.8360      2.00000
     38       1.8790      2.00000
     39       5.9022      0.00000
     40       6.0653      0.00000
     41       6.2905      0.00000
     42       6.3847      0.00000
     43       6.6900      0.00000
     44       6.8233      0.00000
     45       7.1240      0.00000
     46       7.1414      0.00000
     47       8.0527      0.00000
     48       8.7131      0.00000

 k-point     3 :       0.0000    0.3333    0.0000
  band No.  band energies     occupation 
      1     -41.0762      2.00000
      2     -41.0761      2.00000
      3     -40.6985      2.00000
      4     -40.6978      2.00000
      5     -40.6976      2.00000
      6     -40.6969      2.00000
      7     -12.5971      2.00000
      8     -12.4981      2.00000
      9      -9.6327      2.00000
     10      -9.5562      2.00000
     11      -9.4368      2.00000
     12      -9.4126      2.00000
     13      -9.3777      2.00000
     14      -9.3454      2.00000
     15      -5.4428      2.00000
     16      -5.1475      2.00000
     17      -2.6973      2.00000
     18      -2.5554      2.00000
     19      -2.3511      2.00000
     20      -2.2836      2.00000
     21      -2.1465      2.00000
     22      -2.1207      2.00000
     23      -0.1323      2.00000
     24       0.0391      2.00000
     25       0.0582      2.00000
     26       0.2272      2.00000
     27       0.4864      2.00000
     28       0.6247      2.00000
     29       0.9045      2.00000
     30       1.0103      2.00000
     31       1.3438      2.00000
     32       1.3506      2.00000
     33       1.5088      2.00000
     34       1.5250      2.00000
     35       1.6729      2.00000
     36       1.8685      2.00000
     37       1.8707      2.00000
     38       2.1955      2.00000
     39       5.0543      0.00000
     40       5.8976      0.00000
     41       6.3076      0.00000
     42       6.4847      0.00000
     43       6.6480      0.00000
     44       6.9421      0.00000
     45       7.1023      0.00000
     46       7.1402      0.00000
     47       8.0971      0.00000
     48       8.5385      0.00000

 k-point     4 :       0.3333    0.3333    0.0000
  band No.  band energies     occupation 
      1     -41.0762      2.00000
      2     -41.0761      2.00000
      3     -40.6983      2.00000
      4     -40.6979      2.00000
      5     -40.6975      2.00000
      6     -40.6971      2.00000
      7     -12.5713      2.00000
      8     -12.5218      2.00000
      9      -9.6448      2.00000
     10      -9.6000      2.00000
     11      -9.4396      2.00000
     12      -9.3969      2.00000
     13      -9.3565      2.00000
     14      -9.3396      2.00000
     15      -5.3310      2.00000
     16      -5.1832      2.00000
     17      -2.6498      2.00000
     18      -2.5481      2.00000
     19      -2.4199      2.00000
     20      -2.2971      2.00000
     21      -2.1545      2.00000
     22      -2.1303      2.00000
     23      -0.1477      2.00000
     24      -0.0602      2.00000
     25       0.0786      2.00000
     26       0.2888      2.00000
     27       0.5472      2.00000
     28       0.7779      2.00000
     29       0.8914      2.00000
     30       0.9563      2.00000
     31       1.1440      2.00000
     32       1.2988      2.00000
     33       1.3517      2.00000
     34       1.4679      2.00000
     35       1.7309      2.00000
     36       1.8557      2.00000
     37       1.9410      2.00000
     38       2.0342      2.00000
     39       5.5480      0.00000
     40       6.0389      0.00000
     41       6.3981      0.00000
     42       6.5098      0.00000
     43       6.7890      0.00000
     44       6.8107      0.00000
     45       7.1108      0.00000
     46       7.1801      0.00000
     47       8.3153      0.00000
     48       8.6870      0.00000

 k-point     5 :       0.0000    0.0000    0.3333
  band No.  band energies     occupation 
      1     -41.0762      2.00000
      2     -41.0762      2.00000
      3     -40.6983      2.00000
      4     -40.6980      2.00000
      5     -40.6975      2.00000
      6     -40.6971      2.00000
      7     -12.5754      2.00000
      8     -12.4874      2.00000
      9      -9.5949      2.00000
     10      -9.5259      2.00000
     11      -9.5054      2.00000
     12      -9.4383      2.00000
     13      -9.4111      2.00000
     14      -9.4085      2.00000
     15      -5.4680      2.00000
     16      -5.1533      2.00000
     17      -2.4825      2.00000
     18      -2.3737      2.00000
     19      -2.2104      2.00000
     20      -2.1737      2.00000
     21      -2.1442      2.00000
     22      -2.0486      2.00000
     23      -0.2390      2.00000
     24      -0.2027      2.00000
     25      -0.1337      2.00000
     26      -0.0622      2.00000
     27       0.3303      2.00000
     28       0.7318      2.00000
     29       0.9459      2.00000
     30       1.0441      2.00000
     31       1.1158      2.00000
     32       1.4499      2.00000
     33       1.6161      2.00000
     34       1.7584      2.00000
     35       1.8234      2.00000
     36       1.9010      2.00000
     37       1.9415      2.00000
     38       2.1773      2.00000
     39       5.0278      0.00000
     40       5.5256      0.00000
     41       6.0306      0.00000
     42       6.4125      0.00000
     43       6.8267      0.00000
     44       6.9290      0.00000
     45       7.0233      0.00000
     46       7.3136      0.00000
     47       8.2952      0.00000
     48       8.6210      0.00000

 k-point     6 :       0.3333    0.0000    0.3333
  band No.  band energies     occupation 
      1     -41.0762      2.00000
      2     -41.0762      2.00000
      3     -40.6981      2.00000
      4     -40.6978      2.00000
      5     -40.6976      2.00000
      6     -40.6973      2.00000
      7     -12.5521      2.00000
      8     -12.5080      2.00000
      9      -9.6416      2.00000
     10      -9.5914      2.00000
     11      -9.4587      2.00000
     12      -9.4223      2.00000
     13      -9.4071      2.00000
     14      -9.3771      2.00000
     15      -5.3568      2.00000
     16      -5.1989      2.00000
     17      -2.4919      2.00000
     18      -2.4336      2.00000
     19      -2.2401      2.00000
     20      -2.2035      2.00000
     21      -2.0829      2.00000
     22      -2.0256      2.00000
     23      -0.2236      2.00000
     24      -0.1503      2.00000
     25       0.0458      2.00000
     26       0.1012      2.00000
     27       0.2309      2.00000
     28       0.5716      2.00000
     29       0.9226      2.00000
     30       0.9600      2.00000
     31       1.1445      2.00000
     32       1.2283      2.00000
     33       1.5466      2.00000
     34       1.6497      2.00000
     35       1.7529      2.00000
     36       1.8954      2.00000
     37       1.9494      2.00000
     38       2.0368      2.00000
     39       5.4049      0.00000
     40       5.7654      0.00000
     41       6.5157      0.00000
     42       6.5880      0.00000
     43       6.8291      0.00000
     44       6.8944      0.00000
     45       7.1569      0.00000
     46       7.2533      0.00000
     47       8.1334      0.00000
     48       8.5304      0.00000

 k-point     7 :       0.0000    0.3333    0.3333
  band No.  band energies     occupation 
      1     -41.0762      2.00000
      2     -41.0762      2.00000
      3     -40.6983      2.00000
      4     -40.6980      2.00000
      5     -40.6975      2.00000
      6     -40.6971      2.00000
      7     -12.5414      2.00000
      8     -12.4900      2.00000
      9      -9.6273      2.00000
     10      -9.5541      2.00000
     11      -9.5126      2.00000
     12      -9.4785      2.00000
     13      -9.4233      2.00000
     14      -9.4221      2.00000
     15      -5.3163      2.00000
     16      -5.1516      2.00000
     17      -2.3671      2.00000
     18      -2.2753      2.00000
     19      -2.2666      2.00000
     20      -2.1781      2.00000
     21      -2.1242      2.00000
     22      -2.0548      2.00000
     23      -0.1880      2.00000
     24      -0.0565      2.00000
     25      -0.0156      2.00000
     26       0.0683      2.00000
     27       0.3475      2.00000
     28       0.5309      2.00000
     29       0.8979      2.00000
     30       0.9537      2.00000
     31       1.1184      2.00000
     32       1.2795      2.00000
     33       1.5846      2.00000
     34       1.5995      2.00000
     35       1.7233      2.00000
     36       1.9237      2.00000
     37       1.9732      2.00000
     38       2.0714      2.00000
     39       4.9989      0.00000
     40       5.2788      0.00000
     41       6.3406      0.00000
     42       6.5252      0.00000
     43       6.6418      0.00000
     44       6.7371      0.00000
     45       6.8487      0.00000
     46       6.9606      0.00000
     47       8.1725      0.00000
     48       8.6266      0.00000

 k-point     8 :       0.3333    0.3333    0.3333
  band No.  band energies     occupation 
      1     -41.0762      2.00000
      2     -41.0762      2.00000
      3     -40.6981      2.00000
      4     -40.6978      2.00000
      5     -40.6976      2.00000
      6     -40.6973      2.00000
      7     -12.5270      2.00000
      8     -12.5012      2.00000
      9      -9.6140      2.00000
     10      -9.5669      2.00000
     11      -9.5549      2.00000
     12      -9.4730      2.00000
     13      -9.4289      2.00000
     14      -9.4039      2.00000
     15      -5.2232      2.00000
     16      -5.1402      2.00000
     17      -2.4204      2.00000
     18      -2.3537      2.00000
     19      -2.1934      2.00000
     20      -2.1864      2.00000
     21      -2.0579      2.00000
     22      -2.0303      2.00000
     23      -0.3071      2.00000
     24      -0.1933      2.00000
     25      -0.0495      2.00000
     26       0.0838      2.00000
     27       0.4674      2.00000
     28       0.5651      2.00000
     29       0.8172      2.00000
     30       0.9399      2.00000
     31       1.0426      2.00000
     32       1.1615      2.00000
     33       1.5214      2.00000
     34       1.5962      2.00000
     35       1.7581      2.00000
     36       1.8286      2.00000
     37       2.0086      2.00000
     38       2.0651      2.00000
     39       5.3265      0.00000
     40       5.5798      0.00000
     41       6.4428      0.00000
     42       6.5460      0.00000
     43       6.7221      0.00000
     44       6.8808      0.00000
     45       7.0459      0.00000
     46       7.1583      0.00000
     47       8.2001      0.00000
     48       8.4716      0.00000


--------------------------------------------------------------------------------------------------------


 soft charge-density along one line, spin component           1
         0         1         2         3         4         5         6         7         8         9
 total charge-density along one line
 
 pseudopotential strength for first ion, spin component:           1
 30.070  37.518  -0.000  -0.000   0.000  -0.001  -0.000   0.000
 37.518  46.816  -0.001  -0.000   0.000  -0.001  -0.000   0.000
 -0.000  -0.001   6.588  -0.000  -0.000  10.201  -0.000  -0.000
 -0.000  -0.000  -0.000   6.587  -0.000  -0.000  10.200  -0.000
  0.000   0.000  -0.000  -0.000   6.587  -0.000  -0.000  10.200
 -0.001  -0.001  10.201  -0.000  -0.000  15.815  -0.000  -0.000
 -0.000  -0.000  -0.000  10.200  -0.000  -0.000  15.814  -0.000
  0.000   0.000  -0.000  -0.000  10.200  -0.000  -0.000  15.813
 total augmentation occupancy for first ion, spin component:           1
 10.804  -6.145  -0.027  -0.020   0.000   0.011   0.008   0.000
 -6.145   3.938   0.022   0.014   0.000  -0.008  -0.005   0.000
 -0.027   0.022   4.338  -0.053   0.000  -1.442   0.025   0.000
 -0.020   0.014  -0.053   4.323   0.000   0.025  -1.435   0.000
  0.000   0.000   0.000   0.000   4.357   0.000   0.000  -1.450
  0.011  -0.008  -1.442   0.025   0.000   0.517  -0.011   0.000
  0.008  -0.005   0.025  -1.435   0.000  -0.011   0.514   0.000
  0.000   0.000   0.000   0.000  -1.450   0.000   0.000   0.521


------------------------ aborting loop because EDIFF is reached ----------------------------------------


    CHARGE:  cpu time    0.0153: real time    0.0153
    FORLOC:  cpu time    0.0009: real time    0.0009
    FORNL :  cpu time    0.0348: real time    0.0348
    STRESS:  cpu time    0.1031: real time    0.1039
    FORCOR:  cpu time    0.0026: real time    0.0026
    FORHAR:  cpu time    0.0023: real time    0.0023
    MIXING:  cpu time    0.0004: real time    0.0004
    OFIELD:  cpu time    0.0001: real time    0.0003

  FORCE on cell =-STRESS in cart. coord.  units (eV):
  Direction    XX          YY          ZZ          XY          YZ          ZX
  --------------------------------------------------------------------------------------
  Alpha Z    68.38119    68.38119    68.38119
  Ewald    -913.50784  -939.01983  -878.85077    -0.00000    -0.00000    -0.00000
  Hartree   211.46002   198.87888   238.37377     0.00000    -0.00000    -0.00000
  E(xc)    -277.28411  -277.23659  -277.23328     0.00000    -0.00000    -0.00000
  Local    -646.89171  -607.93242  -707.18710     0.00000     0.00000     0.00000
  n-local   603.09012   601.78790   601.89366    -0.14149     0.00991    -0.04009
  augment   -44.85067   -44.72457   -44.66532    -0.00000    -0.00000    -0.00000
  Kinetic   999.42974   999.98856   999.12736     0.22564    -0.20122     0.14602
  Fock        0.00000     0.00000     0.00000     0.00000     0.00000     0.00000
  -------------------------------------------------------------------------------------
  Total      -0.17325     0.12313    -0.16050     0.00000     0.00000     0.00000
  in kB      -0.96189     0.68361    -0.89111     0.00000     0.00000     0.00000
  external pressure =       -0.39 kB  Pullay stress =        0.00 kB


 VOLUME and BASIS-vectors are now :
 -----------------------------------------------------------------------------
  energy-cutoff  :      420.00
  volume of cell :      288.57
      direct lattice vectors                 reciprocal lattice vectors
     7.580224169  0.000000000  0.000000000     0.131922220  0.000000000  0.000000000
     0.000000000  6.333472612  0.000000000     0.000000000  0.157891265  0.000000000
     0.000000000  0.000000000  6.010790770     0.000000000  0.000000000  0.166367461

  length of vectors
     7.580224169  6.333472612  6.010790770     0.131922220  0.157891265  0.166367461


 FORCES acting on ions
    electron-ion (+dipol)            ewald-force                    non-local-force                 convergence-correction
 -----------------------------------------------------------------------------------------------
   -.503E-09 0.289E+01 -.356E+00   -.544E-08 -.281E+01 0.335E+00   0.000E+00 -.720E-01 0.311E-01   0.112E-09 -.568E-03 -.421E-04
   0.752E-08 -.289E+01 -.356E+00   0.809E-08 0.281E+01 0.335E+00   0.000E+00 0.720E-01 0.311E-01   -.117E-09 0.568E-03 -.421E-04
   -.571E+02 0.328E+02 0.176E+02   0.590E+02 -.344E+02 -.185E+02   -.186E+01 0.162E+01 0.948E+00   0.157E-02 -.238E-02 -.800E-03
   0.571E+02 -.328E+02 0.176E+02   -.590E+02 0.344E+02 -.185E+02   0.186E+01 -.162E+01 0.948E+00   -.157E-02 0.238E-02 -.800E-03
   -.571E+02 -.328E+02 0.176E+02   0.590E+02 0.344E+02 -.185E+02   -.186E+01 -.162E+01 0.948E+00   0.157E-02 0.238E-02 -.800E-03
   0.571E+02 0.328E+02 0.176E+02   -.590E+02 -.344E+02 -.185E+02   0.186E+01 0.162E+01 0.948E+00   -.157E-02 -.238E-02 -.800E-03
   -.403E-09 -.623E+02 0.245E+02   -.183E-08 0.649E+02 -.254E+02   0.000E+00 -.260E+01 0.853E+00   0.143E-09 0.304E-02 0.156E-03
   0.187E-07 0.623E+02 0.245E+02   0.524E-08 -.649E+02 -.254E+02   0.000E+00 0.260E+01 0.853E+00   -.143E-09 -.304E-02 0.156E-03
   -.437E-09 0.920E+01 -.560E+02   -.145E-08 -.937E+01 0.589E+02   0.000E+00 0.160E+00 -.285E+01   0.141E-09 -.922E-03 0.177E-02
   0.185E-07 -.920E+01 -.560E+02   0.550E-08 0.937E+01 0.589E+02   0.000E+00 -.160E+00 -.285E+01   -.144E-09 0.922E-03 0.177E-02
   -.220E-10 -.153E+02 0.156E+01   -.459E-09 0.143E+02 -.129E+01   0.000E+00 0.946E+00 -.268E+00   0.718E-10 0.475E-03 -.146E-03
   0.137E-07 0.153E+02 0.156E+01   0.164E-08 -.143E+02 -.129E+01   0.000E+00 -.946E+00 -.268E+00   -.700E-10 -.475E-03 -.146E-03
   -.278E+01 0.395E+01 -.239E+01   0.266E+01 -.384E+01 0.228E+01   0.127E+00 -.115E+00 0.118E+00   0.209E-03 -.690E-03 0.814E-05
   0.278E+01 -.395E+01 -.239E+01   -.266E+01 0.384E+01 0.228E+01   -.127E+00 0.115E+00 0.118E+00   -.209E-03 0.690E-03 0.814E-05
   -.278E+01 -.395E+01 -.239E+01   0.266E+01 0.384E+01 0.228E+01   0.127E+00 0.115E+00 0.118E+00   0.209E-03 0.690E-03 0.814E-05
   0.278E+01 0.395E+01 -.239E+01   -.266E+01 -.384E+01 0.228E+01   -.127E+00 -.115E+00 0.118E+00   -.209E-03 -.690E-03 0.814E-05
 -----------------------------------------------------------------------------------------------
   0.405E-07 -.220E-06 0.208E+00   0.151E-13 -.888E-14 0.107E-13   0.000E+00 0.125E-15 -.206E+00   -.452E-11 0.226E-10 0.313E-03
 
 
 POSITION                                       TOTAL-FORCE (eV/Angst)
 -----------------------------------------------------------------------------------
      0.00000      2.02282      1.80576         0.000000      0.011120      0.009677
      3.79011      4.31065      4.81115         0.000000     -0.011120      0.009677
      1.66912      1.06903      1.13707         0.008194     -0.007533     -0.003680
      2.12099      5.26444      4.14247        -0.008194      0.007533     -0.003680
      5.45923      5.26444      4.14247         0.008194      0.007533     -0.003680
      5.91110      1.06903      1.13707        -0.008194     -0.007533     -0.003680
      0.00000      3.93561      1.11573         0.000000     -0.044038      0.005854
      3.79011      2.39787      4.12112         0.000000      0.044038      0.005854
      0.00000      1.97596      3.84385         0.000000     -0.007191     -0.018195
      3.79011      4.35752      0.83846         0.000000      0.007191     -0.018195
      0.00000      4.16312      4.73282         0.000000     -0.020022     -0.002109
      3.79011      2.17036      1.72743         0.000000      0.020022     -0.002109
      1.93945      1.18113      4.81448         0.005475     -0.005561      0.006066
      1.85067      5.15234      1.80909        -0.005475      0.005561      0.006066
      5.72956      5.15234      1.80909         0.005475      0.005561      0.006066
      5.64078      1.18113      4.81448        -0.005475     -0.005561      0.006066
 -----------------------------------------------------------------------------------
    total drift:                                0.000000     -0.000000      0.002389


--------------------------------------------------------------------------------------------------------



  FREE ENERGIE OF THE ION-ELECTRON SYSTEM (eV)
  ---------------------------------------------------
  free  energy   TOTEN  =       -77.40684705 eV

  energy  without entropy=      -77.40684705  energy(sigma->0) =      -77.40684705
 


--------------------------------------------------------------------------------------------------------


    POTLOK:  cpu time    0.0038: real time    0.0038


--------------------------------------------------------------------------------------------------------


     LOOP+:  cpu time    2.8611: real time    2.8842
    4ORBIT:  cpu time    0.0000: real time    0.0000
 BZINTS: Fermi energy:  2.302702; 76.000000 electrons
         Band energy:-670.347321;  BLOECHL correction:  0.000000

 total amount of memory used by VASP MPI-rank0    33574. kBytes
=======================================================================

   base      :      30000. kBytes
   nonlr-proj:       1209. kBytes
   fftplans  :        656. kBytes
   grid      :       1147. kBytes
   one-center:          3. kBytes
   wavefun   :        559. kBytes
 
  
  
 General timing and accounting informations for this job:
 ========================================================
  
                  Total CPU time used (sec):        3.758
                            User time (sec):        3.389
                          System time (sec):        0.369
                         Elapsed time (sec):        4.926
  
                   Maximum memory used (kb):      142040.
                   Average memory used (kb):           0.
  
                          Minor page faults:        20758
                          Major page faults:           84
                 Voluntary context switches:         2063
