 vasp.5.4.4.18Apr17-6-g9f103f2a35 (build Feb 28 2020 14:15:47) complex          
  
 executed on             LinuxIFC date 2022.08.06  21:59:41
 running on   64 total cores
 distrk:  each k-point on   64 cores,    1 groups
 distr:  one band on NCORES_PER_BAND=  16 cores,    4 groups


--------------------------------------------------------------------------------------------------------


 INCAR:
 POTCAR:    PAW P 26Mar2009                       
 POTCAR:    PAW S 27Mar2009                       
 POTCAR:    PAW Li_sv 10Sep2004                   
 POTCAR:    PAW P 26Mar2009                       
   VRHFIN =P : s2p3                                                             
   LEXCH  = CA                                                                  
   EATOM  =   176.5121 eV,   12.9733 Ry                                         
                                                                                
   TITEL  = PAW P 26Mar2009                                                     
   LULTRA =        F    use ultrasoft PP ?                                      
   IUNSCR =        1    unscreen: 0-lin 1-nonlin 2-no                           
   RPACOR =    1.500    partial core radius                                     
   POMASS =   30.974; ZVAL   =    5.000    mass and valenz                      
   RCORE  =    1.900    outmost cutoff radius                                   
   RWIGS  =    2.330; RWIGS  =    1.233    wigner-seitz radius (au A)           
   ENMAX  =  255.155; ENMIN  =  191.366 eV                                      
   ICORE  =        2    local potential                                         
   LCOR   =        T    correct aug charges                                     
   LPAW   =        T    paw PP                                                  
   EAUG   =  342.924                                                            
   DEXC   =    0.000                                                            
   RMAX   =    1.935    core radius for proj-oper                               
   RAUG   =    1.300    factor for augmentation sphere                          
   RDEP   =    1.931    radius for radial grids                                 
   RDEPT  =    1.780    core radius for aug-charge                              
                                                                                
   Atomic configuration                                                         
    6 entries                                                                   
     n  l   j            E        occ.                                          
     1  0  0.50     -2072.7761   2.0000                                         
     2  0  0.50      -172.9483   2.0000                                         
     2  1  1.50      -124.4644   6.0000                                         
     3  0  0.50       -14.0086   2.0000                                         
     3  1  0.50        -5.6037   3.0000                                         
     3  2  1.50        -6.8029   0.0000                                         
   Description                                                                  
     l       E           TYP  RCUT    TYP  RCUT                                 
     0    -14.0086211     23  1.900                                             
     0    -11.8189335     23  1.900                                             
     1     -5.6037292     23  1.900                                             
     1     -0.3527308     23  1.900                                             
     2     -6.8029130     23  1.900                                             
  local pseudopotential read in
  partial core-charges read in
  partial kinetic energy density read in
  atomic valenz-charges read in
  non local Contribution for L=           0  read in
    real space projection operators read in
  non local Contribution for L=           0  read in
    real space projection operators read in
  non local Contribution for L=           1  read in
    real space projection operators read in
  non local Contribution for L=           1  read in
    real space projection operators read in
    PAW grid and wavefunctions read in
 
   number of l-projection  operators is LMAX  =           4
   number of lm-projection operators is LMMAX =           8
 
 POTCAR:    PAW S 27Mar2009                       
   VRHFIN =S : s2p4                                                             
   LEXCH  = CA                                                                  
   EATOM  =   277.3745 eV,   20.3864 Ry                                         
                                                                                
   TITEL  = PAW S 27Mar2009                                                     
   LULTRA =        F    use ultrasoft PP ?                                      
   IUNSCR =        1    unscreen: 0-lin 1-nonlin 2-no                           
   RPACOR =    1.500    partial core radius                                     
   POMASS =   32.066; ZVAL   =    6.000    mass and valenz                      
   RCORE  =    1.900    outmost cutoff radius                                   
   RWIGS  =    2.200; RWIGS  =    1.164    wigner-seitz radius (au A)           
   ENMAX  =  258.602; ENMIN  =  193.952 eV                                      
   ICORE  =        2    local potential                                         
   LCOR   =        T    correct aug charges                                     
   LPAW   =        T    paw PP                                                  
   EAUG   =  335.092                                                            
   DEXC   =    0.000                                                            
   RMAX   =    1.942    core radius for proj-oper                               
   RAUG   =    1.300    factor for augmentation sphere                          
   RDEP   =    1.954    radius for radial grids                                 
   RDEPT  =    1.744    core radius for aug-charge                              
                                                                                
   Atomic configuration                                                         
    6 entries                                                                   
     n  l   j            E        occ.                                          
     1  0  0.50     -2393.1495   2.0000                                         
     2  0  0.50      -210.5411   2.0000                                         
     2  1  1.50      -156.4410   6.0000                                         
     3  0  0.50       -17.2664   2.0000                                         
     3  1  0.50        -7.1129   4.0000                                         
     3  2  1.50        -8.1635   0.0000                                         
   Description                                                                  
     l       E           TYP  RCUT    TYP  RCUT                                 
     0    -17.2664422     23  1.900                                             
     0    -15.8420823     23  1.900                                             
     1     -7.1129072     23  1.900                                             
     1     -2.8398274     23  1.900                                             
     2     -8.1634956     23  1.900                                             
  local pseudopotential read in
  partial core-charges read in
  partial kinetic energy density read in
  atomic valenz-charges read in
  non local Contribution for L=           0  read in
    real space projection operators read in
  non local Contribution for L=           0  read in
    real space projection operators read in
  non local Contribution for L=           1  read in
    real space projection operators read in
  non local Contribution for L=           1  read in
    real space projection operators read in
    PAW grid and wavefunctions read in
 
   number of l-projection  operators is LMAX  =           4
   number of lm-projection operators is LMMAX =           8
 
 POTCAR:    PAW Li_sv 10Sep2004                   
   VRHFIN =Li: 1s2s                                                             
   LEXCH  = CA                                                                  
   EATOM  =   199.5738 eV,   14.6683 Ry                                         
                                                                                
   TITEL  = PAW Li_sv 10Sep2004                                                 
   LULTRA =        F    use ultrasoft PP ?                                      
   IUNSCR =        0    unscreen: 0-lin 1-nonlin 2-no                           
   RPACOR =    0.000    partial core radius                                     
   POMASS =    7.010; ZVAL   =    3.000    mass and valenz                      
   RCORE  =    1.700    outmost cutoff radius                                   
   RWIGS  =    2.050; RWIGS  =    1.085    wigner-seitz radius (au A)           
   ENMAX  =  498.387; ENMIN  =  373.790 eV                                      
   ICORE  =        2    local potential                                         
   LCOR   =        T    correct aug charges                                     
   LPAW   =        T    paw PP                                                  
   EAUG   =  628.945                                                            
   RMAX   =    1.732    core radius for proj-oper                               
   RAUG   =    1.300    factor for augmentation sphere                          
   RDEP   =    1.728    radius for radial grids                                 
   RDEPT  =    1.329    core radius for aug-charge                              
                                                                                
   Atomic configuration                                                         
    4 entries                                                                   
     n  l   j            E        occ.                                          
     1  0  0.50       -51.0884   2.0000                                         
     2  0  0.50        -2.8766   1.0000                                         
     2  1  0.50        -2.8708   0.0000                                         
     3  2  1.50        -1.3606   0.0000                                         
   Description                                                                  
     l       E           TYP  RCUT    TYP  RCUT                                 
     0    -51.0884324     23  1.400                                             
     0     -2.8766458     23  1.700                                             
     1     -2.8708293     23  1.400                                             
     2     -1.3605826     23  1.400                                             
  local pseudopotential read in
  atomic valenz-charges read in
  non local Contribution for L=           0  read in
    real space projection operators read in
  non local Contribution for L=           0  read in
    real space projection operators read in
  non local Contribution for L=           1  read in
    real space projection operators read in
    PAW grid and wavefunctions read in
 
   number of l-projection  operators is LMAX  =           3
   number of lm-projection operators is LMMAX =           5
 
 Optimization of the real space projectors (new method)

 maximal supplied QI-value         = 19.84
 optimisation between [QCUT,QGAM] = [ 10.32, 20.83] = [ 29.81,121.55] Ry 
 Optimized for a Real-space Cutoff    1.39 Angstroem

   l    n(q)    QCUT    max X(q) W(low)/X(q) W(high)/X(q)  e(spline) 
   0      9    10.318   158.476    0.64E-04    0.80E-04    0.60E-07
   0      9    10.318   128.097    0.63E-04    0.79E-04    0.60E-07
   1      8    10.318    73.217    0.18E-03    0.19E-03    0.20E-06
   1      8    10.318    48.248    0.18E-03    0.19E-03    0.19E-06
 Optimization of the real space projectors (new method)

 maximal supplied QI-value         = 19.84
 optimisation between [QCUT,QGAM] = [ 10.32, 20.83] = [ 29.81,121.55] Ry 
 Optimized for a Real-space Cutoff    1.39 Angstroem

   l    n(q)    QCUT    max X(q) W(low)/X(q) W(high)/X(q)  e(spline) 
   0      9    10.318   180.455    0.73E-04    0.81E-04    0.62E-07
   0      9    10.318   157.733    0.72E-04    0.81E-04    0.62E-07
   1      8    10.318    66.201    0.18E-03    0.20E-03    0.20E-06
   1      8    10.318    49.617    0.18E-03    0.20E-03    0.20E-06
 Optimization of the real space projectors (new method)

 maximal supplied QI-value         = 22.11
 optimisation between [QCUT,QGAM] = [ 10.39, 20.78] = [ 30.24,120.96] Ry 
 Optimized for a Real-space Cutoff    1.20 Angstroem

   l    n(q)    QCUT    max X(q) W(low)/X(q) W(high)/X(q)  e(spline) 
   0      7    10.392    10.443    0.77E-04    0.41E-05    0.30E-07
   0      7    10.392     8.514    0.20E-03    0.36E-04    0.67E-07
   1      7    10.392     5.406    0.20E-03    0.20E-03    0.12E-06
  PAW P 26Mar2009                       :
 energy of atom  1       EATOM= -176.5121
 kinetic energy error for atom=    0.0021 (will be added to EATOM!!)
  PAW S 27Mar2009                       :
 energy of atom  2       EATOM= -277.3745
 kinetic energy error for atom=    0.0041 (will be added to EATOM!!)
  PAW Li_sv 10Sep2004                   :
 energy of atom  3       EATOM= -199.5738
 kinetic energy error for atom=    0.0564 (will be added to EATOM!!)
 
 
 POSCAR: Good luck                               
  positions in cartesian coordinates
  No initial velocities read in
 exchange correlation table for  LEXCH =        2
   RHO(1)=    0.500       N(1)  =     2000
   RHO(2)=  100.500       N(2)  =     4000
 


--------------------------------------------------------------------------------------------------------


 ion  position               nearest neighbor table
   1  0.000  0.319  0.300-   7 2.03   6 2.04   3 2.04   9 2.04
   2  0.500  0.681  0.800-   8 2.03   4 2.04   5 2.04  10 2.04
   3  0.220  0.163  0.198-   1 2.04  14 2.31  13 2.40  12 2.47
   4  0.280  0.837  0.698-   2 2.04  13 2.31  14 2.40  11 2.47
   5  0.720  0.837  0.698-   2 2.04  16 2.31  15 2.40  11 2.47
   6  0.780  0.163  0.198-   1 2.04  15 2.31  16 2.40  12 2.47
   7  0.000  0.615  0.169-   1 2.03  11 2.31  14 2.37  15 2.37
   8  0.500  0.385  0.669-   2 2.03  12 2.31  13 2.37  16 2.37
   9  0.000  0.329  0.639-   1 2.04  11 2.26  16 2.35  13 2.35
  10  0.500  0.671  0.139-   2 2.04  12 2.26  14 2.35  15 2.35
  11  0.000  0.657  0.787-   9 2.26   7 2.31   4 2.47   5 2.47
  12  0.500  0.343  0.287-  10 2.26   8 2.31   3 2.47   6 2.47
  13  0.256  0.187  0.801-   4 2.31   9 2.35   8 2.37   3 2.40
  14  0.244  0.813  0.301-   3 2.31  10 2.35   7 2.37   4 2.40
  15  0.756  0.813  0.301-   6 2.31  10 2.35   7 2.37   5 2.40
  16  0.744  0.187  0.801-   5 2.31   9 2.35   8 2.37   6 2.40
 
  LATTYP: Found a simple orthorhombic cell.
 ALAT       =     6.0107907704
 B/A-ratio  =     1.0536837587
 C/A-ratio  =     1.2611026499
  
  Lattice vectors:
  
 A1 = (   0.0000000000,   0.0000000000,  -6.0107907704)
 A2 = (   0.0000000000,  -6.3334726120,   0.0000000000)
 A3 = (  -7.5802241689,   0.0000000000,   0.0000000000)


Analysis of symmetry for initial positions (statically):
=====================================================================
 Subroutine PRICEL returns:
 Original cell was already a primitive cell.
 

 Routine SETGRP: Setting up the symmetry group for a 
 simple orthorhombic supercell.


 Subroutine GETGRP returns: Found  4 space group operations
 (whereof  2 operations were pure point group operations)
 out of a pool of  8 trial point group operations.


The static configuration has the point symmetry C_1h.
 The point group associated with its full space group is C_2v.


Analysis of symmetry for dynamics (positions and initial velocities):
=====================================================================
 Subroutine PRICEL returns:
 Original cell was already a primitive cell.
 

 Routine SETGRP: Setting up the symmetry group for a 
 simple orthorhombic supercell.


 Subroutine GETGRP returns: Found  4 space group operations
 (whereof  2 operations were pure point group operations)
 out of a pool of  8 trial point group operations.


The dynamic configuration has the point symmetry C_1h.
 The point group associated with its full space group is C_2v.


 Subroutine INISYM returns: Found  4 space group operations
 (whereof  2 operations are pure point group operations),
 and found     1 'primitive' translations

 
 
 KPOINTS: Automatic mesh                          

Automatic generation of k-mesh.
Space group operators:
 irot       det(A)        alpha          n_x          n_y          n_z        tau_x        tau_y        tau_z
    1     1.000000     0.000000     1.000000     0.000000     0.000000     0.000000     0.000000     0.000000
    2    -1.000000   180.000000     1.000000     0.000000     0.000000     0.000000     0.000000     0.000000
    3    -1.000000   180.000000     0.000000     1.000000     0.000000    -0.500000    -0.000000    -0.500000
    4     1.000000   180.000000     0.000000     0.000000     1.000000    -0.500000    -0.000000    -0.500000
 
 Subroutine IBZKPT returns following result:
 ===========================================
 
 Found      8 irreducible k-points:
 
 Following reciprocal coordinates:
            Coordinates               Weight
  0.000000  0.000000  0.000000      1.000000
  0.333333  0.000000  0.000000      2.000000
  0.000000  0.333333  0.000000      2.000000
  0.333333  0.333333  0.000000      4.000000
  0.000000  0.000000  0.333333      2.000000
  0.333333  0.000000  0.333333      4.000000
  0.000000  0.333333  0.333333      4.000000
  0.333333  0.333333  0.333333      8.000000
 
 Following cartesian coordinates:
            Coordinates               Weight
  0.000000  0.000000  0.000000      1.000000
  0.043974  0.000000  0.000000      2.000000
  0.000000  0.052630  0.000000      2.000000
  0.043974  0.052630  0.000000      4.000000
  0.000000  0.000000  0.055456      2.000000
  0.043974  0.000000  0.055456      4.000000
  0.000000  0.052630  0.055456      4.000000
  0.043974  0.052630  0.055456      8.000000
 
 TETIRR: Found     70 inequivalent tetrahedra from      162


--------------------------------------------------------------------------------------------------------




 Dimension of arrays:
   k-points           NKPTS =      8   k-points in BZ     NKDIM =      8   number of bands    NBANDS=     48
   number of dos      NEDOS =    301   number of ions     NIONS =     16
   non local maximal  LDIM  =      4   non local SUM 2l+1 LMDIM =      8
   total plane-waves  NPLWV =  90720
   max r-space proj   IRMAX =   3568   max aug-charges    IRDMAX=  10103
   dimension x,y,z NGX =    54 NGY =   42 NGZ =   40
   dimension x,y,z NGXF=   108 NGYF=   84 NGZF=   80
   support grid    NGXF=   108 NGYF=   84 NGZF=   80
   ions per type =               2   8   6
   NGX,Y,Z   is equivalent  to a cutoff of  11.84, 11.02, 11.06 a.u.
   NGXF,Y,Z  is equivalent  to a cutoff of  23.69, 22.05, 22.13 a.u.

 SYSTEM =  unknown system                          
 POSCAR =  Good luck                               

 Startparameter for this run:
   NWRITE =      2    write-flag & timer
   PREC   = accura    normal or accurate (medium, high low for compatibility)
   ISTART =      0    job   : 0-new  1-cont  2-samecut
   ICHARG =      2    charge: 1-file 2-atom 10-const
   ISPIN  =      1    spin polarized calculation?
   LNONCOLLINEAR =      F non collinear calculations
   LSORBIT =      F    spin-orbit coupling
   INIWAV =      1    electr: 0-lowe 1-rand  2-diag
   LASPH  =      F    aspherical Exc in radial PAW
   METAGGA=      F    non-selfconsistent MetaGGA calc.

 Electronic Relaxation 1
   ENCUT  =  420.0 eV  30.87 Ry    5.56 a.u.  12.67 10.58 10.04*2*pi/ulx,y,z
   ENINI  =  420.0     initial cutoff
   ENAUG  =  628.9 eV  augmentation charge cutoff
   NELM   =    100;   NELMIN=  2; NELMDL= -5     # of ELM steps 
   EDIFF  = 0.2E-04   stopping-criterion for ELM
   LREAL  =      T    real-space projection
   NLSPLINE    = F    spline interpolate recip. space projectors
   LCOMPAT=      F    compatible to vasp.4.4
   GGA_COMPAT  = T    GGA compatible to vasp.4.4-vasp.4.6
   LMAXPAW     = -100 max onsite density
   LMAXMIX     =    2 max onsite mixed and CHGCAR
   VOSKOWN=      0    Vosko Wilk Nusair interpolation
   ROPT   =   -0.00025  -0.00025  -0.00025
 Ionic relaxation
   EDIFFG = 0.2E-03   stopping-criterion for IOM
   NSW    =      0    number of steps for IOM
   NBLOCK =      1;   KBLOCK =      1    inner block; outer block 
   IBRION =     -1    ionic relax: 0-MD 1-quasi-New 2-CG
   NFREE  =      1    steps in history (QN), initial steepest desc. (CG)
   ISIF   =      7    stress and relaxation
   IWAVPR =     10    prediction:  0-non 1-charg 2-wave 3-comb
   ISYM   =      2    0-nonsym 1-usesym 2-fastsym
   LCORR  =      T    Harris-Foulkes like correction to forces

   POTIM  = 0.5000    time-step for ionic-motion
   TEIN   =    0.0    initial temperature
   TEBEG  =    0.0;   TEEND  =   0.0 temperature during run
   SMASS  =  -3.00    Nose mass-parameter (am)
   estimated Nose-frequenzy (Omega)   =  0.10E-29 period in steps =****** mass=  -0.131E-26a.u.
   SCALEE = 1.0000    scale energy and forces
   NPACO  =    256;   APACO  = 16.0  distance and # of slots for P.C.
   PSTRESS=    0.0 pullay stress

  Mass of Ions in am
   POMASS =  30.97 32.07  7.01
  Ionic Valenz
   ZVAL   =   5.00  6.00  3.00
  Atomic Wigner-Seitz radii
   RWIGS  =  -1.00 -1.00 -1.00
  virtual crystal weights 
   VCA    =   1.00  1.00  1.00
   NELECT =      76.0000    total number of electrons
   NUPDOWN=      -1.0000    fix difference up-down

 DOS related values:
   EMIN   =  10.00;   EMAX   =-10.00  energy-range for DOS
   EFERMI =   0.00
   ISMEAR =    -5;   SIGMA  =   0.20  broadening in eV -4-tet -1-fermi 0-gaus

 Electronic relaxation 2 (details)
   IALGO  =     68    algorithm
   LDIAG  =      T    sub-space diagonalisation (order eigenvalues)
   LSUBROT=      F    optimize rotation matrix (better conditioning)
   TURBO    =      0    0=normal 1=particle mesh
   IRESTART =      0    0=no restart 2=restart with 2 vectors
   NREBOOT  =      0    no. of reboots
   NMIN     =      0    reboot dimension
   EREF     =   0.00    reference energy to select bands
   IMIX   =      4    mixing-type and parameters
     AMIX     =   0.40;   BMIX     =  1.00
     AMIX_MAG =   1.60;   BMIX_MAG =  1.00
     AMIN     =   0.10
     WC   =   100.;   INIMIX=   1;  MIXPRE=   1;  MAXMIX= -45

 Intra band minimization:
   WEIMIN = 0.0000     energy-eigenvalue tresh-hold
   EBREAK =  0.10E-06  absolut break condition
   DEPER  =   0.30     relativ break condition  

   TIME   =   0.40     timestep for ELM

  volume/ion in A,a.u.               =      18.04       121.71
  Fermi-wavevector in a.u.,A,eV,Ry     =   1.049367  1.983017 14.982350  1.101172
  Thomas-Fermi vector in A             =   2.184327
 
 Write flags
   LWAVE        =      F    write WAVECAR
   LDOWNSAMPLE  =      F    k-point downsampling of WAVECAR
   LCHARG       =      F    write CHGCAR
   LVTOT        =      F    write LOCPOT, total local potential
   LVHAR        =      F    write LOCPOT, Hartree potential only
   LELF         =      F    write electronic localiz. function (ELF)
   LORBIT       =      0    0 simple, 1 ext, 2 COOP (PROOUT), +10 PAW based schemes


 Dipole corrections
   LMONO  =      F    monopole corrections only (constant potential shift)
   LDIPOL =      F    correct potential (dipole corrections)
   IDIPOL =      0    1-x, 2-y, 3-z, 4-all directions 
   EPSILON=  1.0000000 bulk dielectric constant

 Exchange correlation treatment:
   GGA     =    --    GGA type
   LEXCH   =     2    internal setting for exchange type
   VOSKOWN=      0    Vosko Wilk Nusair interpolation
   LHFCALC =     F    Hartree Fock is set to
   LHFONE  =     F    Hartree Fock one center treatment
   AEXX    =    0.0000 exact exchange contribution

 Linear response parameters
   LEPSILON=     F    determine dielectric tensor
   LRPA    =     F    only Hartree local field effects (RPA)
   LNABLA  =     F    use nabla operator in PAW spheres
   LVEL    =     F    velocity operator in full k-point grid
   LINTERFAST=   F  fast interpolation
   KINTER  =     0    interpolate to denser k-point grid
   CSHIFT  =0.1000    complex shift for real part using Kramers Kronig
   OMEGAMAX=  -1.0    maximum frequency
   DEG_THRESHOLD= 0.2000000E-02 threshold for treating states as degnerate
   RTIME   =   -0.100 relaxation time in fs
  (WPLASMAI=    0.000 imaginary part of plasma frequency in eV, 0.658/RTIME)
   DFIELD  = 0.0000000 0.0000000 0.0000000 field for delta impulse in time
 
 Orbital magnetization related:
   ORBITALMAG=     F  switch on orbital magnetization
   LCHIMAG   =     F  perturbation theory with respect to B field
   DQ        =  0.001000  dq finite difference perturbation B field
   LLRAUG    =     F  two centre corrections for induced B field



--------------------------------------------------------------------------------------------------------


 Static calculation
 charge density and potential will be updated during run
 non-spin polarized calculation
 RMM-DIIS sequential band-by-band and
  variant of blocked Davidson during initial phase
 perform sub-space diagonalisation
    before iterative eigenvector-optimisation
 modified Broyden-mixing scheme, WC =      100.0
 initial mixing is a Kerker type mixing with AMIX =  0.4000 and BMIX =      1.0000
 Hartree-type preconditioning will be used
 using additional bands           10
 real space projection scheme for non local part
 use partial core corrections
 calculate Harris-corrections to forces 
   (improved forces if not selfconsistent)
 use of overlap-Matrix (Vanderbilt PP)
 Fermi weights with tetrahedron method with Bloechl corrections


--------------------------------------------------------------------------------------------------------


  energy-cutoff  :      420.00
  volume of cell :      288.57
      direct lattice vectors                 reciprocal lattice vectors
     7.580224169  0.000000000  0.000000000     0.131922220  0.000000000  0.000000000
     0.000000000  6.333472612  0.000000000     0.000000000  0.157891265  0.000000000
     0.000000000  0.000000000  6.010790770     0.000000000  0.000000000  0.166367461

  length of vectors
     7.580224169  6.333472612  6.010790770     0.131922220  0.157891265  0.166367461


 
 k-points in units of 2pi/SCALE and weight: Automatic mesh                          
   0.00000000  0.00000000  0.00000000       0.037
   0.04397407  0.00000000  0.00000000       0.074
   0.00000000  0.05263042  0.00000000       0.074
   0.04397407  0.05263042  0.00000000       0.148
   0.00000000  0.00000000  0.05545582       0.074
   0.04397407  0.00000000  0.05545582       0.148
   0.00000000  0.05263042  0.05545582       0.148
   0.04397407  0.05263042  0.05545582       0.296
 
 k-points in reciprocal lattice and weights: Automatic mesh                          
   0.00000000  0.00000000  0.00000000       0.037
   0.33333333  0.00000000  0.00000000       0.074
   0.00000000  0.33333333  0.00000000       0.074
   0.33333333  0.33333333  0.00000000       0.148
   0.00000000  0.00000000  0.33333333       0.074
   0.33333333  0.00000000  0.33333333       0.148
   0.00000000  0.33333333  0.33333333       0.148
   0.33333333  0.33333333  0.33333333       0.296
 
 position of ions in fractional coordinates (direct lattice) 
   0.00000000  0.31940437  0.30038139
   0.50000000  0.68059563  0.80038139
   0.22019414  0.16349021  0.19759142
   0.27980586  0.83650979  0.69759142
   0.72019414  0.83650979  0.69759142
   0.77980586  0.16349021  0.19759142
   0.00000000  0.61530063  0.16908566
   0.50000000  0.38469937  0.66908566
   0.00000000  0.32885646  0.63939773
   0.50000000  0.67114354  0.13939773
   0.00000000  0.65729698  0.78739097
   0.50000000  0.34270302  0.28739097
   0.25586098  0.18650270  0.80096402
   0.24413902  0.81349730  0.30096402
   0.75586098  0.81349730  0.30096402
   0.74413902  0.18650270  0.80096402
 
 position of ions in cartesian coordinates  (Angst):
   0.00000000  2.02293881  1.80552966
   3.79011208  4.31053380  4.81092504
   1.66912095  1.03546076  1.18768069
   2.12099114  5.29801186  4.19307607
   5.45923303  5.29801186  4.19307607
   5.91110322  1.03546076  1.18768069
   0.00000000  3.89698970  1.01633855
   3.79011208  2.43648291  4.02173393
   0.00000000  2.08280336  3.84328600
   3.79011208  4.25066925  0.83789062
   0.00000000  4.16297241  4.73284236
   3.79011208  2.17050020  1.72744698
   1.93948359  1.18120977  4.81442714
   1.85062850  5.15226284  1.80903175
   5.72959567  5.15226284  1.80903175
   5.64074058  1.18120977  4.81442714
 


--------------------------------------------------------------------------------------------------------


 k-point  1 :   0.0000 0.0000 0.0000  plane waves:    5661
 k-point  2 :   0.3333 0.0000 0.0000  plane waves:    5642
 k-point  3 :   0.0000 0.3333 0.0000  plane waves:    5625
 k-point  4 :   0.3333 0.3333 0.0000  plane waves:    5615
 k-point  5 :   0.0000 0.0000 0.3333  plane waves:    5654
 k-point  6 :   0.3333 0.0000 0.3333  plane waves:    5626
 k-point  7 :   0.0000 0.3333 0.3333  plane waves:    5649
 k-point  8 :   0.3333 0.3333 0.3333  plane waves:    5643

 maximum and minimum number of plane-waves per node :       370      332

 maximum number of plane-waves:      5661
 maximum index in each direction: 
   IXMAX=   12   IYMAX=   10   IZMAX=   10
   IXMIN=  -13   IYMIN=  -10   IZMIN=  -10


 real space projection operators:
  total allocation   :       2642.22 KBytes
  max/ min on nodes  :        202.30        141.59


 parallel 3D FFT for wavefunctions:
    minimum data exchange during FFTs selected (reduces bandwidth)
 parallel 3D FFT for charge:
    minimum data exchange during FFTs selected (reduces bandwidth)


 total amount of memory used by VASP MPI-rank0    33572. kBytes
=======================================================================

   base      :      30000. kBytes
   nonlr-proj:       1207. kBytes
   fftplans  :        656. kBytes
   grid      :       1147. kBytes
   one-center:          3. kBytes
   wavefun   :        559. kBytes
 
     INWAV:  cpu time    0.0000: real time    0.0000
 Broyden mixing: mesh for mixing (old mesh)
   NGX = 25   NGY = 21   NGZ = 21
  (NGX  =108   NGY  = 84   NGZ  = 80)
  gives a total of  11025 points

 initial charge density was supplied:
 charge density of overlapping atoms calculated
 number of electron      76.0000000 magnetization 
 keeping initial charge density in first step


--------------------------------------------------------------------------------------------------------


 Maximum index for non-local projection operator          430
 Maximum index for augmentation-charges          524 (set IRDMAX)


--------------------------------------------------------------------------------------------------------


 First call to EWALD:  gamma=   0.268
 Maximum number of real-space cells 2x 3x 3
 Maximum number of reciprocal cells 3x 3x 3

    FEWALD:  cpu time    0.0020: real time    0.0020


--------------------------------------- Iteration      1(   1)  ---------------------------------------


    POTLOK:  cpu time    0.0053: real time    0.0082
    SETDIJ:  cpu time    0.0033: real time    0.0037
     EDDAV:  cpu time    0.1961: real time    0.2048
 BZINTS: Fermi energy: 14.845161; 76.000000 electrons
         Band energy:-126.893604;  BLOECHL correction: -0.145777
       DOS:  cpu time    0.0046: real time    0.0050
    --------------------------------------------
      LOOP:  cpu time    0.2093: real time    0.2218

 eigenvalue-minimisations  :   776
 total energy-change (2. order) : 0.4968219E+03  (-0.2855658E+04)
 number of electron      76.0000000 magnetization 
 augmentation part       76.0000000 magnetization 

 Free energy of the ion-electron system (eV)
  ---------------------------------------------------
  alpha Z        PSCENC =        68.38118764
  Ewald energy   TEWEN  =     -2729.74809507
  -Hartree energ DENC   =      -618.90053123
  -exchange      EXHF   =         0.00000000
  -V(xc)+E(xc)   XCENC  =       181.79284095
  PAW double counting   =      2494.22442938    -2541.12215007
  entropy T*S    EENTRO =         0.00000000
  eigenvalues    EBANDS =      -126.89360362
  atomic energy  EATOM  =      3769.08782378
  Solvation  Ediel_sol  =         0.00000000
  ---------------------------------------------------
  free energy    TOTEN  =       496.82190177 eV

  energy without entropy =      496.82190177  energy(sigma->0) =      496.82190177


--------------------------------------------------------------------------------------------------------




--------------------------------------- Iteration      1(   2)  ---------------------------------------


     EDDAV:  cpu time    0.2004: real time    0.2006
 BZINTS: Fermi energy:  3.798285; 76.000000 electrons
         Band energy:-636.718799;  BLOECHL correction:  0.000000
       DOS:  cpu time    0.0008: real time    0.0008
    --------------------------------------------
      LOOP:  cpu time    0.2012: real time    0.2014

 eigenvalue-minimisations  :   936
 total energy-change (2. order) :-0.5098252E+03  (-0.4858857E+03)
 number of electron      76.0000000 magnetization 
 augmentation part       76.0000000 magnetization 

 Free energy of the ion-electron system (eV)
  ---------------------------------------------------
  alpha Z        PSCENC =        68.38118764
  Ewald energy   TEWEN  =     -2729.74809507
  -Hartree energ DENC   =      -618.90053123
  -exchange      EXHF   =         0.00000000
  -V(xc)+E(xc)   XCENC  =       181.79284095
  PAW double counting   =      2494.22442938    -2541.12215007
  entropy T*S    EENTRO =         0.00000000
  eigenvalues    EBANDS =      -636.71879944
  atomic energy  EATOM  =      3769.08782378
  Solvation  Ediel_sol  =         0.00000000
  ---------------------------------------------------
  free energy    TOTEN  =       -13.00329405 eV

  energy without entropy =      -13.00329405  energy(sigma->0) =      -13.00329405


--------------------------------------------------------------------------------------------------------




--------------------------------------- Iteration      1(   3)  ---------------------------------------


     EDDAV:  cpu time    0.2237: real time    0.2239
 BZINTS: Fermi energy:  1.647099; 76.000000 electrons
         Band energy:-696.143977;  BLOECHL correction:  0.000000
       DOS:  cpu time    0.0008: real time    0.0008
    --------------------------------------------
      LOOP:  cpu time    0.2244: real time    0.2247

 eigenvalue-minimisations  :  1064
 total energy-change (2. order) :-0.5942518E+02  (-0.5907903E+02)
 number of electron      76.0000000 magnetization 
 augmentation part       76.0000000 magnetization 

 Free energy of the ion-electron system (eV)
  ---------------------------------------------------
  alpha Z        PSCENC =        68.38118764
  Ewald energy   TEWEN  =     -2729.74809507
  -Hartree energ DENC   =      -618.90053123
  -exchange      EXHF   =         0.00000000
  -V(xc)+E(xc)   XCENC  =       181.79284095
  PAW double counting   =      2494.22442938    -2541.12215007
  entropy T*S    EENTRO =         0.00000000
  eigenvalues    EBANDS =      -696.14397657
  atomic energy  EATOM  =      3769.08782378
  Solvation  Ediel_sol  =         0.00000000
  ---------------------------------------------------
  free energy    TOTEN  =       -72.42847118 eV

  energy without entropy =      -72.42847118  energy(sigma->0) =      -72.42847118


--------------------------------------------------------------------------------------------------------




--------------------------------------- Iteration      1(   4)  ---------------------------------------


     EDDAV:  cpu time    0.2737: real time    0.2740
 BZINTS: Fermi energy:  1.659346; 76.000000 electrons
         Band energy:-702.994505;  BLOECHL correction:  0.000000
       DOS:  cpu time    0.0008: real time    0.0008
    --------------------------------------------
      LOOP:  cpu time    0.2745: real time    0.2748

 eigenvalue-minimisations  :  1400
 total energy-change (2. order) :-0.6850529E+01  (-0.6830988E+01)
 number of electron      76.0000000 magnetization 
 augmentation part       76.0000000 magnetization 

 Free energy of the ion-electron system (eV)
  ---------------------------------------------------
  alpha Z        PSCENC =        68.38118764
  Ewald energy   TEWEN  =     -2729.74809507
  -Hartree energ DENC   =      -618.90053123
  -exchange      EXHF   =         0.00000000
  -V(xc)+E(xc)   XCENC  =       181.79284095
  PAW double counting   =      2494.22442938    -2541.12215007
  entropy T*S    EENTRO =         0.00000000
  eigenvalues    EBANDS =      -702.99450510
  atomic energy  EATOM  =      3769.08782378
  Solvation  Ediel_sol  =         0.00000000
  ---------------------------------------------------
  free energy    TOTEN  =       -79.27899971 eV

  energy without entropy =      -79.27899971  energy(sigma->0) =      -79.27899971


--------------------------------------------------------------------------------------------------------




--------------------------------------- Iteration      1(   5)  ---------------------------------------


     EDDAV:  cpu time    0.2322: real time    0.2325
 BZINTS: Fermi energy:  1.657061; 76.000000 electrons
         Band energy:-703.838885;  BLOECHL correction:  0.000000
       DOS:  cpu time    0.0008: real time    0.0008
    CHARGE:  cpu time    0.0159: real time    0.0162
    MIXING:  cpu time    0.0011: real time    0.0017
    --------------------------------------------
      LOOP:  cpu time    0.2500: real time    0.2512

 eigenvalue-minimisations  :  1136
 total energy-change (2. order) :-0.8443797E+00  (-0.8442447E+00)
 number of electron      76.0000009 magnetization 
 augmentation part       -1.8388551 magnetization 

 Broyden mixing:
  rms(total) = 0.21733E+01    rms(broyden)= 0.21730E+01
  rms(prec ) = 0.24524E+01
  weight for this iteration     100.00

 Free energy of the ion-electron system (eV)
  ---------------------------------------------------
  alpha Z        PSCENC =        68.38118764
  Ewald energy   TEWEN  =     -2729.74809507
  -Hartree energ DENC   =      -618.90053123
  -exchange      EXHF   =         0.00000000
  -V(xc)+E(xc)   XCENC  =       181.79284095
  PAW double counting   =      2494.22442938    -2541.12215007
  entropy T*S    EENTRO =         0.00000000
  eigenvalues    EBANDS =      -703.83888477
  atomic energy  EATOM  =      3769.08782378
  Solvation  Ediel_sol  =         0.00000000
  ---------------------------------------------------
  free energy    TOTEN  =       -80.12337938 eV

  energy without entropy =      -80.12337938  energy(sigma->0) =      -80.12337938


--------------------------------------------------------------------------------------------------------




--------------------------------------- Iteration      1(   6)  ---------------------------------------


    POTLOK:  cpu time    0.0032: real time    0.0035
    SETDIJ:  cpu time    0.0009: real time    0.0009
    EDDIAG:  cpu time    0.0505: real time    0.0513
  RMM-DIIS:  cpu time    0.0831: real time    0.0831
    ORTHCH:  cpu time    0.0068: real time    0.0068
 BZINTS: Fermi energy:  2.086000; 76.000000 electrons
         Band energy:-686.761314;  BLOECHL correction:  0.000000
       DOS:  cpu time    0.0008: real time    0.0008
    CHARGE:  cpu time    0.0151: real time    0.0151
    MIXING:  cpu time    0.0005: real time    0.0005
    --------------------------------------------
      LOOP:  cpu time    0.1609: real time    0.1620

 eigenvalue-minimisations  :   898
 total energy-change (2. order) : 0.2338347E+01  (-0.7013978E+00)
 number of electron      76.0000009 magnetization 
 augmentation part       -1.7826579 magnetization 

 Broyden mixing:
  rms(total) = 0.14633E+01    rms(broyden)= 0.14633E+01
  rms(prec ) = 0.15292E+01
  weight for this iteration     100.00

 eigenvalues of (default mixing * dielectric matrix)
  average eigenvalue GAMMA=   2.3508
  2.3508

 Free energy of the ion-electron system (eV)
  ---------------------------------------------------
  alpha Z        PSCENC =        68.38118764
  Ewald energy   TEWEN  =     -2729.74809507
  -Hartree energ DENC   =      -633.75254055
  -exchange      EXHF   =         0.00000000
  -V(xc)+E(xc)   XCENC  =       183.59032374
  PAW double counting   =      3960.61331589    -4009.19573362
  entropy T*S    EENTRO =         0.00000000
  eigenvalues    EBANDS =      -686.76131405
  atomic energy  EATOM  =      3769.08782378
  Solvation  Ediel_sol  =         0.00000000
  ---------------------------------------------------
  free energy    TOTEN  =       -77.78503224 eV

  energy without entropy =      -77.78503224  energy(sigma->0) =      -77.78503224


--------------------------------------------------------------------------------------------------------




--------------------------------------- Iteration      1(   7)  ---------------------------------------


    POTLOK:  cpu time    0.0032: real time    0.0035
    SETDIJ:  cpu time    0.0010: real time    0.0010
    EDDIAG:  cpu time    0.0500: real time    0.0500
  RMM-DIIS:  cpu time    0.0891: real time    0.0891
    ORTHCH:  cpu time    0.0068: real time    0.0068
 BZINTS: Fermi energy:  2.365467; 76.000000 electrons
         Band energy:-672.081294;  BLOECHL correction:  0.000000
       DOS:  cpu time    0.0008: real time    0.0008
    CHARGE:  cpu time    0.0150: real time    0.0150
    MIXING:  cpu time    0.0005: real time    0.0005
    --------------------------------------------
      LOOP:  cpu time    0.1664: real time    0.1667

 eigenvalue-minimisations  :   982
 total energy-change (2. order) : 0.4160651E+00  (-0.2012267E+00)
 number of electron      76.0000009 magnetization 
 augmentation part       -1.7433382 magnetization 

 Broyden mixing:
  rms(total) = 0.50103E+00    rms(broyden)= 0.50103E+00
  rms(prec ) = 0.52588E+00
  weight for this iteration     100.00

 eigenvalues of (default mixing * dielectric matrix)
  average eigenvalue GAMMA=   1.9187
  1.3949  2.4425

 Free energy of the ion-electron system (eV)
  ---------------------------------------------------
  alpha Z        PSCENC =        68.38118764
  Ewald energy   TEWEN  =     -2729.74809507
  -Hartree energ DENC   =      -648.31929430
  -exchange      EXHF   =         0.00000000
  -V(xc)+E(xc)   XCENC  =       185.25149437
  PAW double counting   =      6431.34941949    -6481.29020878
  entropy T*S    EENTRO =         0.00000000
  eigenvalues    EBANDS =      -672.08129428
  atomic energy  EATOM  =      3769.08782378
  Solvation  Ediel_sol  =         0.00000000
  ---------------------------------------------------
  free energy    TOTEN  =       -77.36896715 eV

  energy without entropy =      -77.36896715  energy(sigma->0) =      -77.36896715


--------------------------------------------------------------------------------------------------------




--------------------------------------- Iteration      1(   8)  ---------------------------------------


    POTLOK:  cpu time    0.0032: real time    0.0035
    SETDIJ:  cpu time    0.0010: real time    0.0010
    EDDIAG:  cpu time    0.0511: real time    0.0511
  RMM-DIIS:  cpu time    0.0949: real time    0.0949
    ORTHCH:  cpu time    0.0067: real time    0.0067
 BZINTS: Fermi energy:  2.388459; 76.000000 electrons
         Band energy:-669.686961;  BLOECHL correction:  0.000000
       DOS:  cpu time    0.0008: real time    0.0008
    CHARGE:  cpu time    0.0152: real time    0.0152
    MIXING:  cpu time    0.0005: real time    0.0005
    --------------------------------------------
      LOOP:  cpu time    0.1734: real time    0.1737

 eigenvalue-minimisations  :  1029
 total energy-change (2. order) : 0.6443764E-01  (-0.2387632E-01)
 number of electron      76.0000009 magnetization 
 augmentation part       -1.7600215 magnetization 

 Broyden mixing:
  rms(total) = 0.49148E-01    rms(broyden)= 0.49122E-01
  rms(prec ) = 0.63755E-01
  weight for this iteration     100.00

 eigenvalues of (default mixing * dielectric matrix)
  average eigenvalue GAMMA=   1.6270
  2.3244  1.0373  1.5193

 Free energy of the ion-electron system (eV)
  ---------------------------------------------------
  alpha Z        PSCENC =        68.38118764
  Ewald energy   TEWEN  =     -2729.74809507
  -Hartree energ DENC   =      -650.77589462
  -exchange      EXHF   =         0.00000000
  -V(xc)+E(xc)   XCENC  =       185.54510762
  PAW double counting   =      7497.00405084    -7547.11174889
  entropy T*S    EENTRO =         0.00000000
  eigenvalues    EBANDS =      -669.68696081
  atomic energy  EATOM  =      3769.08782378
  Solvation  Ediel_sol  =         0.00000000
  ---------------------------------------------------
  free energy    TOTEN  =       -77.30452951 eV

  energy without entropy =      -77.30452951  energy(sigma->0) =      -77.30452951


--------------------------------------------------------------------------------------------------------




--------------------------------------- Iteration      1(   9)  ---------------------------------------


    POTLOK:  cpu time    0.0032: real time    0.0035
    SETDIJ:  cpu time    0.0011: real time    0.0011
    EDDIAG:  cpu time    0.0503: real time    0.0503
  RMM-DIIS:  cpu time    0.1040: real time    0.1040
    ORTHCH:  cpu time    0.0067: real time    0.0068
 BZINTS: Fermi energy:  2.386029; 76.000000 electrons
         Band energy:-670.486930;  BLOECHL correction:  0.000000
       DOS:  cpu time    0.0008: real time    0.0008
    CHARGE:  cpu time    0.0155: real time    0.0155
    MIXING:  cpu time    0.0005: real time    0.0005
    --------------------------------------------
      LOOP:  cpu time    0.1820: real time    0.1823

 eigenvalue-minimisations  :  1141
 total energy-change (2. order) : 0.5543873E-02  (-0.2492104E-02)
 number of electron      76.0000009 magnetization 
 augmentation part       -1.7737250 magnetization 

 Broyden mixing:
  rms(total) = 0.28586E-01    rms(broyden)= 0.28572E-01
  rms(prec ) = 0.30712E-01
  weight for this iteration     100.00

 eigenvalues of (default mixing * dielectric matrix)
  average eigenvalue GAMMA=   1.8061
  2.3205  2.3205  1.2918  1.2918

 Free energy of the ion-electron system (eV)
  ---------------------------------------------------
  alpha Z        PSCENC =        68.38118764
  Ewald energy   TEWEN  =     -2729.74809507
  -Hartree energ DENC   =      -649.99511409
  -exchange      EXHF   =         0.00000000
  -V(xc)+E(xc)   XCENC  =       185.49799957
  PAW double counting   =      7393.00931019    -7443.04516726
  entropy T*S    EENTRO =         0.00000000
  eigenvalues    EBANDS =      -670.48693040
  atomic energy  EATOM  =      3769.08782378
  Solvation  Ediel_sol  =         0.00000000
  ---------------------------------------------------
  free energy    TOTEN  =       -77.29898564 eV

  energy without entropy =      -77.29898564  energy(sigma->0) =      -77.29898564


--------------------------------------------------------------------------------------------------------




--------------------------------------- Iteration      1(  10)  ---------------------------------------


    POTLOK:  cpu time    0.0031: real time    0.0034
    SETDIJ:  cpu time    0.0010: real time    0.0010
    EDDIAG:  cpu time    0.0500: real time    0.0500
  RMM-DIIS:  cpu time    0.1125: real time    0.1125
    ORTHCH:  cpu time    0.0070: real time    0.0070
 BZINTS: Fermi energy:  2.385974; 76.000000 electrons
         Band energy:-670.428284;  BLOECHL correction:  0.000000
       DOS:  cpu time    0.0008: real time    0.0008
    CHARGE:  cpu time    0.0156: real time    0.0156
    MIXING:  cpu time    0.0006: real time    0.0006
    --------------------------------------------
      LOOP:  cpu time    0.1906: real time    0.1909

 eigenvalue-minimisations  :  1222
 total energy-change (2. order) :-0.5329564E-03  (-0.6742319E-03)
 number of electron      76.0000009 magnetization 
 augmentation part       -1.7792897 magnetization 

 Broyden mixing:
  rms(total) = 0.11195E-01    rms(broyden)= 0.11179E-01
  rms(prec ) = 0.13143E-01
  weight for this iteration     100.00

 eigenvalues of (default mixing * dielectric matrix)
  average eigenvalue GAMMA=   1.7940
  2.4141  2.4141  1.9093  0.9691  1.2632

 Free energy of the ion-electron system (eV)
  ---------------------------------------------------
  alpha Z        PSCENC =        68.38118764
  Ewald energy   TEWEN  =     -2729.74809507
  -Hartree energ DENC   =      -650.08383466
  -exchange      EXHF   =         0.00000000
  -V(xc)+E(xc)   XCENC  =       185.49997566
  PAW double counting   =      7351.16590910    -7401.17420118
  entropy T*S    EENTRO =         0.00000000
  eigenvalues    EBANDS =      -670.42828386
  atomic energy  EATOM  =      3769.08782378
  Solvation  Ediel_sol  =         0.00000000
  ---------------------------------------------------
  free energy    TOTEN  =       -77.29951860 eV

  energy without entropy =      -77.29951860  energy(sigma->0) =      -77.29951860


--------------------------------------------------------------------------------------------------------




--------------------------------------- Iteration      1(  11)  ---------------------------------------


    POTLOK:  cpu time    0.0032: real time    0.0035
    SETDIJ:  cpu time    0.0011: real time    0.0011
    EDDIAG:  cpu time    0.0536: real time    0.0536
  RMM-DIIS:  cpu time    0.1123: real time    0.1123
    ORTHCH:  cpu time    0.0068: real time    0.0068
 BZINTS: Fermi energy:  2.387448; 76.000000 electrons
         Band energy:-670.097190;  BLOECHL correction:  0.000000
       DOS:  cpu time    0.0008: real time    0.0008
    CHARGE:  cpu time    0.0150: real time    0.0150
    MIXING:  cpu time    0.0006: real time    0.0006
    --------------------------------------------
      LOOP:  cpu time    0.1935: real time    0.1938

 eigenvalue-minimisations  :  1210
 total energy-change (2. order) :-0.1570466E-03  (-0.1973825E-03)
 number of electron      76.0000009 magnetization 
 augmentation part       -1.7803884 magnetization 

 Broyden mixing:
  rms(total) = 0.22576E-02    rms(broyden)= 0.22342E-02
  rms(prec ) = 0.31223E-02
  weight for this iteration     100.00

 eigenvalues of (default mixing * dielectric matrix)
  average eigenvalue GAMMA=   1.7006
  2.5601  2.5601  1.6511  1.3420  1.0450  1.0450

 Free energy of the ion-electron system (eV)
  ---------------------------------------------------
  alpha Z        PSCENC =        68.38118764
  Ewald energy   TEWEN  =     -2729.74809507
  -Hartree energ DENC   =      -650.45616251
  -exchange      EXHF   =         0.00000000
  -V(xc)+E(xc)   XCENC  =       185.53350281
  PAW double counting   =      7342.32903677    -7392.32977954
  entropy T*S    EENTRO =         0.00000000
  eigenvalues    EBANDS =      -670.09718952
  atomic energy  EATOM  =      3769.08782378
  Solvation  Ediel_sol  =         0.00000000
  ---------------------------------------------------
  free energy    TOTEN  =       -77.29967564 eV

  energy without entropy =      -77.29967564  energy(sigma->0) =      -77.29967564


--------------------------------------------------------------------------------------------------------




--------------------------------------- Iteration      1(  12)  ---------------------------------------


    POTLOK:  cpu time    0.0031: real time    0.0033
    SETDIJ:  cpu time    0.0010: real time    0.0010
    EDDIAG:  cpu time    0.0510: real time    0.0510
  RMM-DIIS:  cpu time    0.0984: real time    0.0984
    ORTHCH:  cpu time    0.0068: real time    0.0068
 BZINTS: Fermi energy:  2.385797; 76.000000 electrons
         Band energy:-670.109653;  BLOECHL correction:  0.000000
       DOS:  cpu time    0.0008: real time    0.0008
    CHARGE:  cpu time    0.0150: real time    0.0150
    MIXING:  cpu time    0.0006: real time    0.0006
    --------------------------------------------
      LOOP:  cpu time    0.1766: real time    0.1769

 eigenvalue-minimisations  :  1074
 total energy-change (2. order) :-0.6855166E-04  (-0.8039890E-04)
 number of electron      76.0000009 magnetization 
 augmentation part       -1.7819342 magnetization 

 Broyden mixing:
  rms(total) = 0.13522E-02    rms(broyden)= 0.13356E-02
  rms(prec ) = 0.16408E-02
  weight for this iteration     100.00

 eigenvalues of (default mixing * dielectric matrix)
  average eigenvalue GAMMA=   1.7023
  2.5978  2.5978  1.8743  1.8743  1.2112  1.0290  0.7316

 Free energy of the ion-electron system (eV)
  ---------------------------------------------------
  alpha Z        PSCENC =        68.38118764
  Ewald energy   TEWEN  =     -2729.74809507
  -Hartree energ DENC   =      -650.45555282
  -exchange      EXHF   =         0.00000000
  -V(xc)+E(xc)   XCENC  =       185.53465880
  PAW double counting   =      7338.22653048    -7388.21664373
  entropy T*S    EENTRO =         0.00000000
  eigenvalues    EBANDS =      -670.10965328
  atomic energy  EATOM  =      3769.08782378
  Solvation  Ediel_sol  =         0.00000000
  ---------------------------------------------------
  free energy    TOTEN  =       -77.29974420 eV

  energy without entropy =      -77.29974420  energy(sigma->0) =      -77.29974420


--------------------------------------------------------------------------------------------------------




--------------------------------------- Iteration      1(  13)  ---------------------------------------


    POTLOK:  cpu time    0.0030: real time    0.0033
    SETDIJ:  cpu time    0.0011: real time    0.0011
    EDDIAG:  cpu time    0.0494: real time    0.0494
  RMM-DIIS:  cpu time    0.0743: real time    0.0743
    ORTHCH:  cpu time    0.0068: real time    0.0068
 BZINTS: Fermi energy:  2.384511; 76.000000 electrons
         Band energy:-670.089809;  BLOECHL correction:  0.000000
       DOS:  cpu time    0.0008: real time    0.0008
    CHARGE:  cpu time    0.0150: real time    0.0150
    MIXING:  cpu time    0.0006: real time    0.0006
    --------------------------------------------
      LOOP:  cpu time    0.1510: real time    0.1513

 eigenvalue-minimisations  :   782
 total energy-change (2. order) :-0.1580118E-04  (-0.2075880E-04)
 number of electron      76.0000009 magnetization 
 augmentation part       -1.7824126 magnetization 

 Broyden mixing:
  rms(total) = 0.68298E-03    rms(broyden)= 0.67627E-03
  rms(prec ) = 0.84708E-03
  weight for this iteration     100.00

 eigenvalues of (default mixing * dielectric matrix)
  average eigenvalue GAMMA=   1.7211
  2.9781  2.7285  2.0278  2.0278  1.1488  1.1488  0.8545  0.8545

 Free energy of the ion-electron system (eV)
  ---------------------------------------------------
  alpha Z        PSCENC =        68.38118764
  Ewald energy   TEWEN  =     -2729.74809507
  -Hartree energ DENC   =      -650.48638635
  -exchange      EXHF   =         0.00000000
  -V(xc)+E(xc)   XCENC  =       185.53786455
  PAW double counting   =      7340.85705313    -7390.83939894
  entropy T*S    EENTRO =         0.00000000
  eigenvalues    EBANDS =      -670.08980874
  atomic energy  EATOM  =      3769.08782378
  Solvation  Ediel_sol  =         0.00000000
  ---------------------------------------------------
  free energy    TOTEN  =       -77.29976000 eV

  energy without entropy =      -77.29976000  energy(sigma->0) =      -77.29976000


--------------------------------------------------------------------------------------------------------




--------------------------------------- Iteration      1(  14)  ---------------------------------------


    POTLOK:  cpu time    0.0031: real time    0.0034
    SETDIJ:  cpu time    0.0011: real time    0.0011
    EDDIAG:  cpu time    0.0498: real time    0.0498
  RMM-DIIS:  cpu time    0.0713: real time    0.0714
    ORTHCH:  cpu time    0.0072: real time    0.0072
 BZINTS: Fermi energy:  2.383240; 76.000000 electrons
         Band energy:-670.076797;  BLOECHL correction:  0.000000
       DOS:  cpu time    0.0007: real time    0.0007
    --------------------------------------------
      LOOP:  cpu time    0.1332: real time    0.1335

 eigenvalue-minimisations  :   778
 total energy-change (2. order) :-0.2977247E-05  (-0.6114345E-05)
 number of electron      76.0000009 magnetization 
 augmentation part       -1.7824126 magnetization 

 Free energy of the ion-electron system (eV)
  ---------------------------------------------------
  alpha Z        PSCENC =        68.38118764
  Ewald energy   TEWEN  =     -2729.74809507
  -Hartree energ DENC   =      -650.50825706
  -exchange      EXHF   =         0.00000000
  -V(xc)+E(xc)   XCENC  =       185.53974564
  PAW double counting   =      7340.59959020    -7390.57496112
  entropy T*S    EENTRO =         0.00000000
  eigenvalues    EBANDS =      -670.07679698
  atomic energy  EATOM  =      3769.08782378
  Solvation  Ediel_sol  =         0.00000000
  ---------------------------------------------------
  free energy    TOTEN  =       -77.29976298 eV

  energy without entropy =      -77.29976298  energy(sigma->0) =      -77.29976298


--------------------------------------------------------------------------------------------------------




 average (electrostatic) potential at core
  the test charge radii are     0.9587  0.9698  0.7079
  (the norm of the test charge is              1.0000)
       1 -88.4064       2 -88.4064       3 -88.2931       4 -88.2931       5 -88.2931
       6 -88.2931       7 -88.3064       8 -88.3064       9 -88.2745      10 -88.2745
      11 -63.7891      12 -63.7891      13 -63.5861      14 -63.5861      15 -63.5861
      16 -63.5861
 
 
 
 E-fermi :   2.3832     XC(G=0):  -9.1004     alpha+bet :-10.4659


 k-point     1 :       0.0000    0.0000    0.0000
  band No.  band energies     occupation 
      1     -40.9629      2.00000
      2     -40.9628      2.00000
      3     -40.7633      2.00000
      4     -40.7627      2.00000
      5     -40.7626      2.00000
      6     -40.7619      2.00000
      7     -12.6437      2.00000
      8     -12.4703      2.00000
      9      -9.5817      2.00000
     10      -9.5224      2.00000
     11      -9.4271      2.00000
     12      -9.4090      2.00000
     13      -9.3363      2.00000
     14      -9.3251      2.00000
     15      -5.6516      2.00000
     16      -5.0943      2.00000
     17      -2.6571      2.00000
     18      -2.6533      2.00000
     19      -2.4892      2.00000
     20      -2.2634      2.00000
     21      -2.1512      2.00000
     22      -2.0956      2.00000
     23      -0.1027      2.00000
     24      -0.0212      2.00000
     25       0.1484      2.00000
     26       0.2279      2.00000
     27       0.3304      2.00000
     28       0.5276      2.00000
     29       0.8343      2.00000
     30       1.1151      2.00000
     31       1.1958      2.00000
     32       1.3220      2.00000
     33       1.7603      2.00000
     34       1.8106      2.00000
     35       1.8925      2.00000
     36       1.9082      2.00000
     37       1.9541      2.00000
     38       2.1719      2.00000
     39       5.5545      0.00000
     40       5.6950      0.00000
     41       5.8396      0.00000
     42       6.3899      0.00000
     43       6.4087      0.00000
     44       7.1106      0.00000
     45       7.1913      0.00000
     46       7.2915      0.00000
     47       8.0406      0.00000
     48       8.5754      0.00000

 k-point     2 :       0.3333    0.0000    0.0000
  band No.  band energies     occupation 
      1     -40.9629      2.00000
      2     -40.9628      2.00000
      3     -40.7632      2.00000
      4     -40.7628      2.00000
      5     -40.7624      2.00000
      6     -40.7621      2.00000
      7     -12.6015      2.00000
      8     -12.5149      2.00000
      9      -9.5462      2.00000
     10      -9.4804      2.00000
     11      -9.4259      2.00000
     12      -9.4159      2.00000
     13      -9.3982      2.00000
     14      -9.3547      2.00000
     15      -5.4764      2.00000
     16      -5.1984      2.00000
     17      -2.6812      2.00000
     18      -2.6312      2.00000
     19      -2.5291      2.00000
     20      -2.2430      2.00000
     21      -2.1559      2.00000
     22      -2.1489      2.00000
     23      -0.1011      2.00000
     24       0.0326      2.00000
     25       0.1502      2.00000
     26       0.3737      2.00000
     27       0.4047      2.00000
     28       0.5338      2.00000
     29       0.9432      2.00000
     30       1.1382      2.00000
     31       1.2781      2.00000
     32       1.3663      2.00000
     33       1.4838      2.00000
     34       1.5416      2.00000
     35       1.7435      2.00000
     36       1.8273      2.00000
     37       1.8873      2.00000
     38       1.9573      2.00000
     39       5.8790      0.00000
     40       6.0206      0.00000
     41       6.3243      0.00000
     42       6.4355      0.00000
     43       6.6989      0.00000
     44       6.8558      0.00000
     45       7.1217      0.00000
     46       7.1439      0.00000
     47       7.9857      0.00000
     48       8.6959      0.00000

 k-point     3 :       0.0000    0.3333    0.0000
  band No.  band energies     occupation 
      1     -40.9629      2.00000
      2     -40.9628      2.00000
      3     -40.7633      2.00000
      4     -40.7627      2.00000
      5     -40.7626      2.00000
      6     -40.7618      2.00000
      7     -12.5953      2.00000
      8     -12.4924      2.00000
      9      -9.6239      2.00000
     10      -9.5578      2.00000
     11      -9.4413      2.00000
     12      -9.4023      2.00000
     13      -9.3621      2.00000
     14      -9.3392      2.00000
     15      -5.4431      2.00000
     16      -5.1511      2.00000
     17      -2.6870      2.00000
     18      -2.5777      2.00000
     19      -2.3571      2.00000
     20      -2.2830      2.00000
     21      -2.1522      2.00000
     22      -2.1161      2.00000
     23      -0.1356      2.00000
     24       0.0458      2.00000
     25       0.0637      2.00000
     26       0.2255      2.00000
     27       0.5491      2.00000
     28       0.5920      2.00000
     29       0.9279      2.00000
     30       0.9920      2.00000
     31       1.2988      2.00000
     32       1.4414      2.00000
     33       1.4843      2.00000
     34       1.5297      2.00000
     35       1.7153      2.00000
     36       1.8413      2.00000
     37       1.9540      2.00000
     38       2.2124      2.00000
     39       5.0374      0.00000
     40       5.8723      0.00000
     41       6.3321      0.00000
     42       6.4680      0.00000
     43       6.6522      0.00000
     44       6.8904      0.00000
     45       7.0537      0.00000
     46       7.1161      0.00000
     47       8.1104      0.00000
     48       8.5231      0.00000

 k-point     4 :       0.3333    0.3333    0.0000
  band No.  band energies     occupation 
      1     -40.9628      2.00000
      2     -40.9628      2.00000
      3     -40.7632      2.00000
      4     -40.7628      2.00000
      5     -40.7624      2.00000
      6     -40.7620      2.00000
      7     -12.5685      2.00000
      8     -12.5170      2.00000
      9      -9.6392      2.00000
     10      -9.5963      2.00000
     11      -9.4390      2.00000
     12      -9.3845      2.00000
     13      -9.3531      2.00000
     14      -9.3316      2.00000
     15      -5.3323      2.00000
     16      -5.1864      2.00000
     17      -2.6388      2.00000
     18      -2.5548      2.00000
     19      -2.4214      2.00000
     20      -2.2825      2.00000
     21      -2.1687      2.00000
     22      -2.1425      2.00000
     23      -0.1524      2.00000
     24      -0.0183      2.00000
     25       0.0935      2.00000
     26       0.2702      2.00000
     27       0.5523      2.00000
     28       0.7672      2.00000
     29       0.8835      2.00000
     30       0.9438      2.00000
     31       1.1696      2.00000
     32       1.3030      2.00000
     33       1.3591      2.00000
     34       1.4778      2.00000
     35       1.7595      2.00000
     36       1.8984      2.00000
     37       1.9504      2.00000
     38       2.0426      2.00000
     39       5.5493      0.00000
     40       6.0519      0.00000
     41       6.3782      0.00000
     42       6.4739      0.00000
     43       6.7685      0.00000
     44       6.8137      0.00000
     45       7.1336      0.00000
     46       7.1872      0.00000
     47       8.2875      0.00000
     48       8.7888      0.00000

 k-point     5 :       0.0000    0.0000    0.3333
  band No.  band energies     occupation 
      1     -40.9628      2.00000
      2     -40.9628      2.00000
      3     -40.7632      2.00000
      4     -40.7629      2.00000
      5     -40.7624      2.00000
      6     -40.7621      2.00000
      7     -12.5713      2.00000
      8     -12.4813      2.00000
      9      -9.6027      2.00000
     10      -9.5230      2.00000
     11      -9.5078      2.00000
     12      -9.4213      2.00000
     13      -9.4050      2.00000
     14      -9.4004      2.00000
     15      -5.4644      2.00000
     16      -5.1532      2.00000
     17      -2.4717      2.00000
     18      -2.3620      2.00000
     19      -2.1959      2.00000
     20      -2.1903      2.00000
     21      -2.1139      2.00000
     22      -2.0454      2.00000
     23      -0.2425      2.00000
     24      -0.2381      2.00000
     25      -0.1614      2.00000
     26      -0.0586      2.00000
     27       0.3302      2.00000
     28       0.6785      2.00000
     29       1.0032      2.00000
     30       1.0584      2.00000
     31       1.0990      2.00000
     32       1.4134      2.00000
     33       1.6573      2.00000
     34       1.7975      2.00000
     35       1.8873      2.00000
     36       1.8891      2.00000
     37       1.9186      2.00000
     38       2.2530      2.00000
     39       4.9818      0.00000
     40       5.4753      0.00000
     41       6.0469      0.00000
     42       6.3669      0.00000
     43       6.8402      0.00000
     44       6.9620      0.00000
     45       7.0483      0.00000
     46       7.3283      0.00000
     47       8.2995      0.00000
     48       8.5974      0.00000

 k-point     6 :       0.3333    0.0000    0.3333
  band No.  band energies     occupation 
      1     -40.9628      2.00000
      2     -40.9628      2.00000
      3     -40.7630      2.00000
      4     -40.7627      2.00000
      5     -40.7625      2.00000
      6     -40.7622      2.00000
      7     -12.5474      2.00000
      8     -12.5023      2.00000
      9      -9.6478      2.00000
     10      -9.5951      2.00000
     11      -9.4457      2.00000
     12      -9.4094      2.00000
     13      -9.4021      2.00000
     14      -9.3748      2.00000
     15      -5.3538      2.00000
     16      -5.1977      2.00000
     17      -2.4760      2.00000
     18      -2.4200      2.00000
     19      -2.2545      2.00000
     20      -2.1947      2.00000
     21      -2.0664      2.00000
     22      -2.0132      2.00000
     23      -0.2183      2.00000
     24      -0.1558      2.00000
     25       0.0193      2.00000
     26       0.0744      2.00000
     27       0.2557      2.00000
     28       0.5747      2.00000
     29       0.8900      2.00000
     30       0.9687      2.00000
     31       1.1497      2.00000
     32       1.2200      2.00000
     33       1.5505      2.00000
     34       1.6496      2.00000
     35       1.7700      2.00000
     36       1.8618      2.00000
     37       1.9953      2.00000
     38       2.1064      2.00000
     39       5.3603      0.00000
     40       5.7123      0.00000
     41       6.5235      0.00000
     42       6.5924      0.00000
     43       6.8644      0.00000
     44       6.9501      0.00000
     45       7.1607      0.00000
     46       7.2486      0.00000
     47       8.1026      0.00000
     48       8.5283      0.00000

 k-point     7 :       0.0000    0.3333    0.3333
  band No.  band energies     occupation 
      1     -40.9628      2.00000
      2     -40.9628      2.00000
      3     -40.7632      2.00000
      4     -40.7628      2.00000
      5     -40.7624      2.00000
      6     -40.7621      2.00000
      7     -12.5382      2.00000
      8     -12.4847      2.00000
      9      -9.6195      2.00000
     10      -9.5486      2.00000
     11      -9.5103      2.00000
     12      -9.4890      2.00000
     13      -9.4124      2.00000
     14      -9.4091      2.00000
     15      -5.3104      2.00000
     16      -5.1471      2.00000
     17      -2.3877      2.00000
     18      -2.3089      2.00000
     19      -2.2687      2.00000
     20      -2.1714      2.00000
     21      -2.1073      2.00000
     22      -2.0296      2.00000
     23      -0.1908      2.00000
     24      -0.0720      2.00000
     25      -0.0662      2.00000
     26       0.0948      2.00000
     27       0.3725      2.00000
     28       0.5138      2.00000
     29       0.9126      2.00000
     30       0.9358      2.00000
     31       1.1106      2.00000
     32       1.3113      2.00000
     33       1.5840      2.00000
     34       1.6323      2.00000
     35       1.7748      2.00000
     36       1.9313      2.00000
     37       2.0071      2.00000
     38       2.1300      2.00000
     39       4.9751      0.00000
     40       5.2692      0.00000
     41       6.3342      0.00000
     42       6.5100      0.00000
     43       6.6161      0.00000
     44       6.7171      0.00000
     45       6.8734      0.00000
     46       6.9580      0.00000
     47       8.1676      0.00000
     48       8.6332      0.00000

 k-point     8 :       0.3333    0.3333    0.3333
  band No.  band energies     occupation 
      1     -40.9628      2.00000
      2     -40.9628      2.00000
      3     -40.7630      2.00000
      4     -40.7627      2.00000
      5     -40.7626      2.00000
      6     -40.7622      2.00000
      7     -12.5231      2.00000
      8     -12.4963      2.00000
      9      -9.6156      2.00000
     10      -9.5821      2.00000
     11      -9.5352      2.00000
     12      -9.4685      2.00000
     13      -9.4181      2.00000
     14      -9.3931      2.00000
     15      -5.2189      2.00000
     16      -5.1367      2.00000
     17      -2.4230      2.00000
     18      -2.3536      2.00000
     19      -2.2080      2.00000
     20      -2.1939      2.00000
     21      -2.0493      2.00000
     22      -2.0304      2.00000
     23      -0.3165      2.00000
     24      -0.1860      2.00000
     25      -0.0071      2.00000
     26       0.0935      2.00000
     27       0.4722      2.00000
     28       0.5561      2.00000
     29       0.7996      2.00000
     30       0.9254      2.00000
     31       1.0662      2.00000
     32       1.1694      2.00000
     33       1.5402      2.00000
     34       1.6119      2.00000
     35       1.7590      2.00000
     36       1.8459      2.00000
     37       2.0243      2.00000
     38       2.0742      2.00000
     39       5.3322      0.00000
     40       5.5939      0.00000
     41       6.4162      0.00000
     42       6.5374      0.00000
     43       6.7372      0.00000
     44       6.8639      0.00000
     45       7.0235      0.00000
     46       7.1715      0.00000
     47       8.1598      0.00000
     48       8.4718      0.00000


--------------------------------------------------------------------------------------------------------


 soft charge-density along one line, spin component           1
         0         1         2         3         4         5         6         7         8         9
 total charge-density along one line
 
 pseudopotential strength for first ion, spin component:           1
 30.070  37.518  -0.001  -0.000  -0.000  -0.001  -0.000  -0.000
 37.518  46.815  -0.001  -0.000  -0.000  -0.001  -0.000  -0.000
 -0.001  -0.001   6.587  -0.000   0.000  10.201  -0.000   0.000
 -0.000  -0.000  -0.000   6.587   0.000  -0.000  10.200   0.000
 -0.000  -0.000   0.000   0.000   6.587   0.000   0.000  10.200
 -0.001  -0.001  10.201  -0.000   0.000  15.814  -0.000   0.000
 -0.000  -0.000  -0.000  10.200   0.000  -0.000  15.814   0.000
 -0.000  -0.000   0.000   0.000  10.200   0.000   0.000  15.813
 total augmentation occupancy for first ion, spin component:           1
 10.792  -6.136  -0.030  -0.019   0.000   0.010   0.007   0.000
 -6.136   3.930   0.024   0.014   0.000  -0.008  -0.004   0.000
 -0.030   0.024   4.330  -0.055   0.000  -1.439   0.025   0.000
 -0.019   0.014  -0.055   4.327   0.000   0.025  -1.437   0.000
  0.000   0.000   0.000   0.000   4.354   0.000   0.000  -1.449
  0.010  -0.008  -1.439   0.025   0.000   0.516  -0.011   0.000
  0.007  -0.004   0.025  -1.437   0.000  -0.011   0.515   0.000
  0.000   0.000   0.000   0.000  -1.449   0.000   0.000   0.520


------------------------ aborting loop because EDIFF is reached ----------------------------------------


    CHARGE:  cpu time    0.0157: real time    0.0157
    FORLOC:  cpu time    0.0008: real time    0.0008
    FORNL :  cpu time    0.0348: real time    0.0349
    STRESS:  cpu time    0.1020: real time    0.1027
    FORCOR:  cpu time    0.0026: real time    0.0026
    FORHAR:  cpu time    0.0023: real time    0.0023
    MIXING:  cpu time    0.0004: real time    0.0004
    OFIELD:  cpu time    0.0000: real time    0.0000

  FORCE on cell =-STRESS in cart. coord.  units (eV):
  Direction    XX          YY          ZZ          XY          YZ          ZX
  --------------------------------------------------------------------------------------
  Alpha Z    68.38119    68.38119    68.38119
  Ewald    -938.96441  -916.72962  -874.05979     0.00000     0.00000     0.00000
  Hartree   202.76032   206.30391   241.46301     0.00000    -0.00000     0.00000
  E(xc)    -277.29224  -277.28071  -277.25839    -0.00000    -0.00000    -0.00000
  Local    -614.10055  -636.49981  -714.91492    -0.00000    -0.00000    -0.00000
  n-local   602.83750   601.90546   601.76577    -0.13591     0.02729    -0.01775
  augment   -44.83871   -44.79552   -44.67125    -0.00000     0.00000    -0.00000
  Kinetic   999.44945  1000.79623   999.19530     0.20987    -0.11461     0.13322
  Fock        0.00000     0.00000     0.00000     0.00000     0.00000     0.00000
  -------------------------------------------------------------------------------------
  Total      -1.76745     2.08114    -0.09909     0.00000     0.00000     0.00000
  in kB      -9.81301    11.55463    -0.55017     0.00000     0.00000     0.00000
  external pressure =        0.40 kB  Pullay stress =        0.00 kB


 VOLUME and BASIS-vectors are now :
 -----------------------------------------------------------------------------
  energy-cutoff  :      420.00
  volume of cell :      288.57
      direct lattice vectors                 reciprocal lattice vectors
     7.580224169  0.000000000  0.000000000     0.131922220  0.000000000  0.000000000
     0.000000000  6.333472612  0.000000000     0.000000000  0.157891265  0.000000000
     0.000000000  0.000000000  6.010790770     0.000000000  0.000000000  0.166367461

  length of vectors
     7.580224169  6.333472612  6.010790770     0.131922220  0.157891265  0.166367461


 FORCES acting on ions
    electron-ion (+dipol)            ewald-force                    non-local-force                 convergence-correction
 -----------------------------------------------------------------------------------------------
   0.239E-09 0.407E+01 -.432E+00   -.199E-09 -.394E+01 0.435E+00   0.000E+00 -.118E+00 -.477E-02   0.176E-09 -.702E-03 -.237E-04
   0.685E-08 -.407E+01 -.432E+00   0.248E-08 0.394E+01 0.435E+00   0.000E+00 0.118E+00 -.477E-02   -.182E-09 0.702E-03 -.237E-04
   -.570E+02 0.346E+02 0.189E+02   0.588E+02 -.363E+02 -.198E+02   -.181E+01 0.185E+01 0.676E+00   0.206E-02 -.258E-02 -.421E-03
   0.570E+02 -.346E+02 0.189E+02   -.588E+02 0.363E+02 -.198E+02   0.181E+01 -.185E+01 0.676E+00   -.206E-02 0.258E-02 -.421E-03
   -.570E+02 -.346E+02 0.189E+02   0.588E+02 0.363E+02 -.198E+02   -.181E+01 -.185E+01 0.676E+00   0.206E-02 0.258E-02 -.421E-03
   0.570E+02 0.346E+02 0.189E+02   -.588E+02 -.363E+02 -.198E+02   0.181E+01 0.185E+01 0.676E+00   -.206E-02 -.258E-02 -.421E-03
   0.143E-09 -.635E+02 0.212E+02   -.451E-08 0.660E+02 -.223E+02   0.000E+00 -.244E+01 0.142E+01   0.222E-09 0.360E-02 -.864E-03
   0.190E-07 0.635E+02 0.212E+02   0.549E-08 -.660E+02 -.223E+02   0.000E+00 0.244E+01 0.142E+01   -.223E-09 -.360E-02 -.864E-03
   -.488E-09 0.106E+02 -.551E+02   -.234E-08 -.104E+02 0.580E+02   0.000E+00 -.570E+00 -.289E+01   0.220E-09 -.939E-03 0.185E-02
   0.196E-07 -.106E+02 -.551E+02   0.352E-08 0.104E+02 0.580E+02   0.000E+00 0.570E+00 -.289E+01   -.223E-09 0.939E-03 0.185E-02
   -.340E-09 -.202E+02 0.506E+01   -.315E-08 0.190E+02 -.480E+01   0.000E+00 0.140E+01 -.379E+00   0.111E-09 0.699E-03 0.265E-03
   0.146E-07 0.202E+02 0.506E+01   0.410E-08 -.190E+02 -.480E+01   0.000E+00 -.140E+01 -.379E+00   -.109E-09 -.699E-03 0.265E-03
   -.278E+01 0.206E+01 -.429E+01   0.272E+01 -.208E+01 0.412E+01   0.763E-01 0.225E+00 0.243E+00   0.337E-03 -.814E-03 -.143E-03
   0.278E+01 -.206E+01 -.429E+01   -.272E+01 0.208E+01 0.412E+01   -.763E-01 -.225E+00 0.243E+00   -.337E-03 0.814E-03 -.143E-03
   -.278E+01 -.206E+01 -.429E+01   0.272E+01 0.208E+01 0.412E+01   0.763E-01 -.225E+00 0.243E+00   0.337E-03 0.814E-03 -.143E-03
   0.278E+01 0.206E+01 -.429E+01   -.272E+01 -.208E+01 0.412E+01   -.763E-01 0.225E+00 0.243E+00   -.337E-03 -.814E-03 -.143E-03
 -----------------------------------------------------------------------------------------------
   0.880E-07 -.131E-06 0.309E-01   0.000E+00 0.471E-13 -.346E-13   0.000E+00 0.222E-15 -.230E-01   -.701E-11 -.507E-10 0.204E-03
 
 
 POSITION                                       TOTAL-FORCE (eV/Angst)
 -----------------------------------------------------------------------------------
      0.00000      2.02294      1.80553         0.000000      0.004225     -0.002519
      3.79011      4.31053      4.81093         0.000000     -0.004225     -0.002519
      1.66912      1.03546      1.18768         0.029350      0.136609     -0.204867
      2.12099      5.29801      4.19308        -0.029350     -0.136609     -0.204867
      5.45923      5.29801      4.19308         0.029350     -0.136609     -0.204867
      5.91110      1.03546      1.18768        -0.029350      0.136609     -0.204867
      0.00000      3.89699      1.01634         0.000000      0.034982      0.415787
      3.79011      2.43648      4.02173         0.000000     -0.034982      0.415787
      0.00000      2.08280      3.84329         0.000000     -0.356920     -0.037498
      3.79011      4.25067      0.83789         0.000000      0.356920     -0.037498
      0.00000      4.16297      4.73284         0.000000      0.248475     -0.116535
      3.79011      2.17050      1.72745         0.000000     -0.248475     -0.116535
      1.93948      1.18121      4.81443         0.016277      0.197382      0.075250
      1.85063      5.15226      1.80903        -0.016277     -0.197382      0.075250
      5.72960      5.15226      1.80903         0.016277     -0.197382      0.075250
      5.64074      1.18121      4.81443        -0.016277      0.197382      0.075250
 -----------------------------------------------------------------------------------
    total drift:                                0.000000     -0.000000      0.008140


--------------------------------------------------------------------------------------------------------



  FREE ENERGIE OF THE ION-ELECTRON SYSTEM (eV)
  ---------------------------------------------------
  free  energy   TOTEN  =       -77.29976298 eV

  energy  without entropy=      -77.29976298  energy(sigma->0) =      -77.29976298
 


--------------------------------------------------------------------------------------------------------


    POTLOK:  cpu time    0.0037: real time    0.0039


--------------------------------------------------------------------------------------------------------


     LOOP+:  cpu time    2.8557: real time    2.8807
    4ORBIT:  cpu time    0.0000: real time    0.0000
 BZINTS: Fermi energy:  2.383240; 76.000000 electrons
         Band energy:-670.076797;  BLOECHL correction:  0.000000

 total amount of memory used by VASP MPI-rank0    33572. kBytes
=======================================================================

   base      :      30000. kBytes
   nonlr-proj:       1207. kBytes
   fftplans  :        656. kBytes
   grid      :       1147. kBytes
   one-center:          3. kBytes
   wavefun   :        559. kBytes
 
  
  
 General timing and accounting informations for this job:
 ========================================================
  
                  Total CPU time used (sec):        3.853
                            User time (sec):        3.467
                          System time (sec):        0.386
                         Elapsed time (sec):        4.973
  
                   Maximum memory used (kb):      141988.
                   Average memory used (kb):           0.
  
                          Minor page faults:        20376
                          Major page faults:           93
                 Voluntary context switches:         2024
