<?xml version="1.0" encoding="ISO-8859-1"?>
<modeling>
 <generator>
  <i name="program" type="string">vasp </i>
  <i name="version" type="string">5.4.4.18Apr17-6-g9f103f2a35  </i>
  <i name="subversion" type="string">(build Feb 28 2020 14:15:47) complex            parallel </i>
  <i name="platform" type="string">LinuxIFC </i>
  <i name="date" type="string">2022 08 06 </i>
  <i name="time" type="string">21:59:41 </i>
 </generator>
 <incar>
  <i type="int" name="ISTART">     0</i>
  <i type="string" name="PREC">accurate</i>
  <i type="string" name="ALGO"> FAST</i>
  <i type="int" name="ISPIN">     1</i>
  <i type="int" name="ICHARG">     2</i>
  <i type="int" name="INIWAV">     1</i>
  <i type="int" name="NELM">   100</i>
  <i type="int" name="IBRION">     2</i>
  <i name="EDIFF">      0.00002000</i>
  <i name="EDIFFG">      0.00020000</i>
  <i type="int" name="NSW">     0</i>
  <i type="int" name="ISIF">     7</i>
  <i name="ENCUT">    420.00000000</i>
  <i type="string" name="LREAL"> AUTO</i>
  <i type="int" name="ISMEAR">    -5</i>
  <i type="logical" name="LWAVE"> F  </i>
  <i type="logical" name="LCHARG"> F  </i>
  <v type="int" name="KPOINT_BSE">    -1     0     0     0</v>
  <i type="int" name="NELM">   100</i>
 </incar>
 <structure name="primitive_cell" >
  <crystal>
   <varray name="basis" >
    <v>       7.58022417       0.00000000       0.00000000 </v>
    <v>       0.00000000       6.33347261       0.00000000 </v>
    <v>       0.00000000       0.00000000       6.01079077 </v>
   </varray>
   <i name="volume">    288.57290863 </i>
   <varray name="rec_basis" >
    <v>       0.13192222       0.00000000       0.00000000 </v>
    <v>       0.00000000       0.15789126       0.00000000 </v>
    <v>       0.00000000       0.00000000       0.16636746 </v>
   </varray>
  </crystal>
  <varray name="positions" >
   <v>       0.00000000       0.31940437       0.30038139 </v>
   <v>       0.00000000      -0.38469937       0.16908566 </v>
   <v>      -0.22019414       0.16349021       0.19759142 </v>
   <v>       0.22019414       0.16349021       0.19759142 </v>
   <v>       0.00000000       0.32885646      -0.36060227 </v>
   <v>       0.00000000      -0.34270302      -0.21260903 </v>
   <v>       0.24413902      -0.18650270       0.30096402 </v>
   <v>      -0.24413902      -0.18650270       0.30096402 </v>
   <v>      -0.25586098       0.18650270      -0.19903598 </v>
   <v>       0.25586098       0.18650270      -0.19903598 </v>
   <v>       0.50000000       0.34270302       0.28739097 </v>
   <v>       0.50000000       0.38469937      -0.33091434 </v>
   <v>       0.27980586      -0.16349021      -0.30240858 </v>
   <v>      -0.27980586      -0.16349021      -0.30240858 </v>
   <v>       0.50000000      -0.32885646       0.13939773 </v>
   <v>       0.50000000      -0.31940437      -0.19961861 </v>
  </varray>
 </structure>
 <varray name="primitive_index" >
  <v type="int" >        1 </v>
  <v type="int" >        7 </v>
  <v type="int" >        6 </v>
  <v type="int" >        3 </v>
  <v type="int" >        9 </v>
  <v type="int" >       11 </v>
  <v type="int" >       14 </v>
  <v type="int" >       15 </v>
  <v type="int" >       16 </v>
  <v type="int" >       13 </v>
  <v type="int" >       12 </v>
  <v type="int" >        8 </v>
  <v type="int" >        4 </v>
  <v type="int" >        5 </v>
  <v type="int" >       10 </v>
  <v type="int" >        2 </v>
 </varray>
 <kpoints>
  <generation param="Monkhorst-Pack">
   <v type="int" name="divisions">       3        3        3 </v>
   <v name="usershift">      0.00000000       0.00000000       0.00000000 </v>
   <v name="genvec1">      0.33333333       0.00000000       0.00000000 </v>
   <v name="genvec2">      0.00000000       0.33333333       0.00000000 </v>
   <v name="genvec3">      0.00000000       0.00000000       0.33333333 </v>
   <v name="shift">      0.00000000       0.00000000       0.00000000 </v>
  </generation>
  <varray name="kpointlist" >
   <v>       0.00000000       0.00000000       0.00000000 </v>
   <v>       0.33333333       0.00000000       0.00000000 </v>
   <v>       0.00000000       0.33333333       0.00000000 </v>
   <v>       0.33333333       0.33333333       0.00000000 </v>
   <v>       0.00000000       0.00000000       0.33333333 </v>
   <v>       0.33333333       0.00000000       0.33333333 </v>
   <v>       0.00000000       0.33333333       0.33333333 </v>
   <v>       0.33333333       0.33333333       0.33333333 </v>
  </varray>
  <varray name="weights" >
   <v>       0.03703704 </v>
   <v>       0.07407407 </v>
   <v>       0.07407407 </v>
   <v>       0.14814815 </v>
   <v>       0.07407407 </v>
   <v>       0.14814815 </v>
   <v>       0.14814815 </v>
   <v>       0.29629630 </v>
  </varray>
  <varray name="tetrahedronlist"  type="int" >
   <v type="int" >        2        1        2        4        5 </v>
   <v type="int" >        2        1        3        4        5 </v>
   <v type="int" >        2        3        4        5        7 </v>
   <v type="int" >        2        2        4        5        6 </v>
   <v type="int" >        2        4        5        6        8 </v>
   <v type="int" >        2        4        5        7        8 </v>
   <v type="int" >        2        2        2        4        6 </v>
   <v type="int" >        2        2        4        4        6 </v>
   <v type="int" >        2        4        4        6        8 </v>
   <v type="int" >        2        2        4        6        6 </v>
   <v type="int" >        2        4        6        6        8 </v>
   <v type="int" >        2        4        6        8        8 </v>
   <v type="int" >        2        1        2        3        6 </v>
   <v type="int" >        2        2        3        4        6 </v>
   <v type="int" >        2        3        4        6        8 </v>
   <v type="int" >        2        1        3        5        6 </v>
   <v type="int" >        2        3        5        6        7 </v>
   <v type="int" >        2        3        6        7        8 </v>
   <v type="int" >        2        3        4        4        7 </v>
   <v type="int" >        2        3        3        4        7 </v>
   <v type="int" >        2        3        4        7        7 </v>
   <v type="int" >        2        4        4        7        8 </v>
   <v type="int" >        2        4        7        8        8 </v>
   <v type="int" >        2        4        7        7        8 </v>
   <v type="int" >        4        4        4        4        8 </v>
   <v type="int" >        4        4        4        8        8 </v>
   <v type="int" >        4        4        8        8        8 </v>
   <v type="int" >        2        3        3        4        8 </v>
   <v type="int" >        2        3        4        4        8 </v>
   <v type="int" >        2        3        4        8        8 </v>
   <v type="int" >        2        3        3        7        8 </v>
   <v type="int" >        2        3        7        7        8 </v>
   <v type="int" >        2        3        7        8        8 </v>
   <v type="int" >        2        2        3        4        7 </v>
   <v type="int" >        2        1        2        3        7 </v>
   <v type="int" >        2        1        2        5        7 </v>
   <v type="int" >        2        2        4        7        8 </v>
   <v type="int" >        2        2        6        7        8 </v>
   <v type="int" >        2        2        5        6        7 </v>
   <v type="int" >        2        2        4        4        8 </v>
   <v type="int" >        2        2        2        4        8 </v>
   <v type="int" >        2        2        2        6        8 </v>
   <v type="int" >        2        2        4        8        8 </v>
   <v type="int" >        2        2        6        8        8 </v>
   <v type="int" >        2        2        6        6        8 </v>
   <v type="int" >        2        1        3        4        8 </v>
   <v type="int" >        2        1        2        4        8 </v>
   <v type="int" >        2        1        2        6        8 </v>
   <v type="int" >        2        1        3        7        8 </v>
   <v type="int" >        2        1        5        7        8 </v>
   <v type="int" >        2        1        5        6        8 </v>
   <v type="int" >        2        5        5        6        8 </v>
   <v type="int" >        2        5        5        7        8 </v>
   <v type="int" >        2        5        7        7        8 </v>
   <v type="int" >        2        5        6        6        8 </v>
   <v type="int" >        2        5        6        8        8 </v>
   <v type="int" >        2        5        7        8        8 </v>
   <v type="int" >        4        6        6        6        8 </v>
   <v type="int" >        4        6        6        8        8 </v>
   <v type="int" >        4        6        8        8        8 </v>
   <v type="int" >        2        5        6        6        7 </v>
   <v type="int" >        2        6        6        7        8 </v>
   <v type="int" >        2        6        7        8        8 </v>
   <v type="int" >        2        5        5        6        7 </v>
   <v type="int" >        2        5        6        7        7 </v>
   <v type="int" >        2        6        7        7        8 </v>
   <v type="int" >        4        7        7        8        8 </v>
   <v type="int" >        4        7        7        7        8 </v>
   <v type="int" >        4        7        8        8        8 </v>
   <v type="int" >        6        8        8        8        8 </v>
  </varray>
  <i name="volumeweight">      0.00617284 </i>
 </kpoints>
 <parameters>
  <separator name="general" >
   <i type="string" name="SYSTEM">unknown system</i>
   <i type="logical" name="LCOMPAT"> F  </i>
  </separator>
  <separator name="electronic" >
   <i type="string" name="PREC">accura</i>
   <i name="ENMAX">    420.00000000</i>
   <i name="ENAUG">    628.94500000</i>
   <i name="EDIFF">      0.00002000</i>
   <i type="int" name="IALGO">    68</i>
   <i type="int" name="IWAVPR">    10</i>
   <i type="int" name="NBANDS">    48</i>
   <i name="NELECT">     76.00000000</i>
   <i type="int" name="TURBO">     0</i>
   <i type="int" name="IRESTART">     0</i>
   <i type="int" name="NREBOOT">     0</i>
   <i type="int" name="NMIN">     0</i>
   <i name="EREF">      0.00000000</i>
   <separator name="electronic smearing" >
    <i type="int" name="ISMEAR">    -5</i>
    <i name="SIGMA">      0.20000000</i>
    <i name="KSPACING">      0.50000000</i>
    <i type="logical" name="KGAMMA"> T  </i>
   </separator>
   <separator name="electronic projectors" >
    <i type="logical" name="LREAL"> T  </i>
    <v name="ROPT">     -0.00025000     -0.00025000     -0.00025000</v>
    <i type="int" name="LMAXPAW">  -100</i>
    <i type="int" name="LMAXMIX">     2</i>
    <i type="logical" name="NLSPLINE"> F  </i>
   </separator>
   <separator name="electronic startup" >
    <i type="int" name="ISTART">     0</i>
    <i type="int" name="ICHARG">     2</i>
    <i type="int" name="INIWAV">     1</i>
   </separator>
   <separator name="electronic spin" >
    <i type="int" name="ISPIN">     1</i>
    <i type="logical" name="LNONCOLLINEAR"> F  </i>
    <v name="MAGMOM">      1.00000000      1.00000000      1.00000000      1.00000000      1.00000000      1.00000000      1.00000000      1.00000000      1.00000000      1.00000000      1.00000000      1.00000000      1.00000000      1.00000000      1.00000000      1.00000000</v>
    <i name="NUPDOWN">     -1.00000000</i>
    <i type="logical" name="LSORBIT"> F  </i>
    <v name="SAXIS">      0.00000000      0.00000000      1.00000000</v>
    <i type="logical" name="LSPIRAL"> F  </i>
    <v name="QSPIRAL">      0.00000000      0.00000000      0.00000000</v>
    <i type="logical" name="LZEROZ"> F  </i>
   </separator>
   <separator name="electronic exchange-correlation" >
    <i type="logical" name="LASPH"> F  </i>
    <i type="logical" name="LMETAGGA"> F  </i>
   </separator>
   <separator name="electronic convergence" >
    <i type="int" name="NELM">   100</i>
    <i type="int" name="NELMDL">    -5</i>
    <i type="int" name="NELMIN">     2</i>
    <i name="ENINI">    420.00000000</i>
    <separator name="electronic convergence detail" >
     <i type="logical" name="LDIAG"> T  </i>
     <i type="logical" name="LSUBROT"> F  </i>
     <i name="WEIMIN">      0.00000000</i>
     <i name="EBREAK">      0.00000010</i>
     <i name="DEPER">      0.30000000</i>
     <i type="int" name="NRMM">     4</i>
     <i name="TIME">      0.40000000</i>
    </separator>
   </separator>
   <separator name="electronic mixer" >
    <i name="AMIX">      0.40000000</i>
    <i name="BMIX">      1.00000000</i>
    <i name="AMIN">      0.10000000</i>
    <i name="AMIX_MAG">      1.60000000</i>
    <i name="BMIX_MAG">      1.00000000</i>
    <separator name="electronic mixer details" >
     <i type="int" name="IMIX">     4</i>
     <i type="logical" name="MIXFIRST"> F  </i>
     <i type="int" name="MAXMIX">   -45</i>
     <i name="WC">    100.00000000</i>
     <i type="int" name="INIMIX">     1</i>
     <i type="int" name="MIXPRE">     1</i>
     <i type="int" name="MREMOVE">     5</i>
    </separator>
   </separator>
   <separator name="electronic dipolcorrection" >
    <i type="logical" name="LDIPOL"> F  </i>
    <i type="logical" name="LMONO"> F  </i>
    <i type="int" name="IDIPOL">     0</i>
    <i name="EPSILON">      1.00000000</i>
    <v name="DIPOL">   -100.00000000   -100.00000000   -100.00000000</v>
    <i name="EFIELD">      0.00000000</i>
   </separator>
  </separator>
  <separator name="grids" >
   <i type="int" name="NGX">    54</i>
   <i type="int" name="NGY">    42</i>
   <i type="int" name="NGZ">    40</i>
   <i type="int" name="NGXF">   108</i>
   <i type="int" name="NGYF">    84</i>
   <i type="int" name="NGZF">    80</i>
   <i type="logical" name="ADDGRID"> F  </i>
  </separator>
  <separator name="ionic" >
   <i type="int" name="NSW">     0</i>
   <i type="int" name="IBRION">    -1</i>
   <i type="int" name="MDALGO">     0</i>
   <i type="int" name="ISIF">     7</i>
   <i name="PSTRESS">      0.00000000</i>
   <i name="EDIFFG">      0.00020000</i>
   <i type="int" name="NFREE">     1</i>
   <i name="POTIM">      0.50000000</i>
   <i name="SMASS">     -3.00000000</i>
   <i name="SCALEE">      1.00000000</i>
  </separator>
  <separator name="ionic md" >
   <i name="TEBEG">      0.00010000</i>
   <i name="TEEND">      0.00010000</i>
   <i type="int" name="NBLOCK">     1</i>
   <i type="int" name="KBLOCK">     1</i>
   <i type="int" name="NPACO">   256</i>
   <i name="APACO">     16.00000000</i>
  </separator>
  <separator name="symmetry" >
   <i type="int" name="ISYM">     2</i>
   <i name="SYMPREC">      0.00001000</i>
  </separator>
  <separator name="dos" >
   <i type="int" name="LORBIT">     0</i>
   <v name="RWIGS">     -1.00000000     -1.00000000     -1.00000000</v>
   <i type="int" name="NEDOS">   301</i>
   <i name="EMIN">     10.00000000</i>
   <i name="EMAX">    -10.00000000</i>
   <i name="EFERMI">      0.00000000</i>
  </separator>
  <separator name="writing" >
   <i type="int" name="NWRITE">     2</i>
   <i type="logical" name="LWAVE"> F  </i>
   <i type="logical" name="LDOWNSAMPLE"> F  </i>
   <i type="logical" name="LCHARG"> F  </i>
   <i type="logical" name="LPARD"> F  </i>
   <i type="logical" name="LVTOT"> F  </i>
   <i type="logical" name="LVHAR"> F  </i>
   <i type="logical" name="LELF"> F  </i>
   <i type="logical" name="LOPTICS"> F  </i>
   <v name="STM">      0.00000000      0.00000000      0.00000000      0.00000000      0.00000000      0.00000000      0.00000000</v>
  </separator>
  <separator name="performance" >
   <i type="int" name="NPAR">     4</i>
   <i type="int" name="NSIM">     4</i>
   <i type="int" name="NBLK">    -1</i>
   <i type="logical" name="LPLANE"> T  </i>
   <i type="logical" name="LSCALAPACK"> T  </i>
   <i type="logical" name="LSCAAWARE"> F  </i>
   <i type="logical" name="LSCALU"> F  </i>
   <i type="logical" name="LASYNC"> F  </i>
   <i type="logical" name="LORBITALREAL"> F  </i>
  </separator>
  <separator name="miscellaneous" >
   <i type="int" name="IDIOT">     3</i>
   <i type="int" name="ISPECIAL">     0</i>
   <i type="logical" name="LMUSIC"> F  </i>
   <v name="POMASS">     30.97400000     32.06600000      7.01000000</v>
   <v name="DARWINR">      0.00000000      0.00000000      0.00000000</v>
   <v name="DARWINV">      1.00000000      1.00000000      1.00000000</v>
   <i type="logical" name="LCORR"> T  </i>
  </separator>
  <i type="logical" name="GGA_COMPAT"> T  </i>
  <i type="logical" name="LBERRY"> F  </i>
  <i type="int" name="ICORELEVEL">     0</i>
  <i type="logical" name="LDAU"> F  </i>
  <i type="int" name="I_CONSTRAINED_M">     0</i>
  <separator name="electronic exchange-correlation" >
   <i type="string" name="GGA">--</i>
   <i type="int" name="VOSKOWN">     0</i>
   <i type="logical" name="LHFCALC"> F  </i>
   <i type="string" name="PRECFOCK"></i>
   <i type="logical" name="LSYMGRAD"> F  </i>
   <i type="logical" name="LHFONE"> F  </i>
   <i type="logical" name="LRHFCALC"> F  </i>
   <i type="logical" name="LTHOMAS"> F  </i>
   <i type="logical" name="LMODELHF"> F  </i>
   <i name="ENCUT4O">     -1.00000000</i>
   <i type="int" name="EXXOEP">     0</i>
   <i type="int" name="FOURORBIT">     0</i>
   <i name="AEXX">      0.00000000</i>
   <i name="HFALPHA">      0.00000000</i>
   <i name="MCALPHA">      0.00000000</i>
   <i name="ALDAX">      1.00000000</i>
   <i name="AGGAX">      1.00000000</i>
   <i name="ALDAC">      1.00000000</i>
   <i name="AGGAC">      1.00000000</i>
   <i type="int" name="NKREDX">     1</i>
   <i type="int" name="NKREDY">     1</i>
   <i type="int" name="NKREDZ">     1</i>
   <i type="logical" name="SHIFTRED"> F  </i>
   <i type="logical" name="ODDONLY"> F  </i>
   <i type="logical" name="EVENONLY"> F  </i>
   <i type="int" name="LMAXFOCK">     0</i>
   <i type="int" name="NMAXFOCKAE">     0</i>
   <i type="logical" name="LFOCKAEDFT"> F  </i>
   <i name="HFSCREEN">      0.00000000</i>
   <i name="HFSCREENC">      0.00000000</i>
   <i type="int" name="NBANDSGWLOW">     0</i>
  </separator>
  <separator name="vdW DFT" >
   <i type="logical" name="LUSE_VDW"> F  </i>
   <i name="Zab_VDW">     -0.84910000</i>
   <i name="PARAM1">      0.12340000</i>
   <i name="PARAM2">      1.00000000</i>
   <i name="PARAM3">      0.00000000</i>
  </separator>
  <separator name="model GW" >
   <i type="int" name="MODEL_GW">     0</i>
   <i name="MODEL_EPS0">     10.82148407</i>
   <i name="MODEL_ALPHA">      1.00000000</i>
  </separator>
  <separator name="linear response parameters" >
   <i type="logical" name="LEPSILON"> F  </i>
   <i type="logical" name="LRPA"> F  </i>
   <i type="logical" name="LNABLA"> F  </i>
   <i type="logical" name="LVEL"> F  </i>
   <i type="int" name="KINTER">     0</i>
   <i name="CSHIFT">      0.10000000</i>
   <i name="OMEGAMAX">     -1.00000000</i>
   <i name="DEG_THRESHOLD">      0.00200000</i>
   <i name="RTIME">     -0.10000000</i>
   <i name="WPLASMAI">      0.00000000</i>
   <v name="DFIELD">      0.00000000      0.00000000      0.00000000</v>
   <v name="WPLASMA">      0.00000000      0.00000000      0.00000000      0.00000000      0.00000000      0.00000000      0.00000000      0.00000000      0.00000000</v>
  </separator>
  <separator name="orbital magnetization" >
   <i type="logical" name="NUCIND"> F  </i>
   <v name="MAGPOS">      0.00000000      0.00000000      0.00000000</v>
   <i type="logical" name="LNICSALL"> T  </i>
   <i type="logical" name="ORBITALMAG"> F  </i>
   <i type="logical" name="LMAGBLOCH"> F  </i>
   <i type="logical" name="LCHIMAG"> F  </i>
   <i type="logical" name="LGAUGE"> T  </i>
   <i type="int" name="MAGATOM">     0</i>
   <v name="MAGDIPOL">      0.00000000      0.00000000      0.00000000</v>
   <v name="AVECCONST">      0.00000000      0.00000000      0.00000000</v>
  </separator>
  <separator name="response functions" >
   <i type="logical" name="LADDER"> F  </i>
   <i type="logical" name="LRPAFORCE"> F  </i>
   <i type="logical" name="LFXC"> F  </i>
   <i type="logical" name="LHARTREE"> T  </i>
   <i type="int" name="IBSE">     0</i>
   <v type="int" name="KPOINT">    -1     0     0     0</v>
   <i type="logical" name="LTCTE"> F  </i>
   <i type="logical" name="LTETE"> F  </i>
   <i type="logical" name="LTRIPLET"> F  </i>
   <i type="logical" name="LFXCEPS"> F  </i>
   <i type="logical" name="LFXHEG"> F  </i>
   <i type="int" name="NATURALO">     2</i>
   <i type="logical" name="L2ORDER"> F  </i>
   <i type="logical" name="LMP2LT"> F  </i>
   <i type="logical" name="LUSEW"> F  </i>
   <i name="ENCUTGW">     -2.00000000</i>
   <i name="ENCUTGWSOFT">     -2.00000000</i>
   <i name="ENCUTLF">     -1.00000000</i>
   <i type="int" name="LMAXMP2">    -1</i>
   <i name="SCISSOR">      0.00000000</i>
   <i type="int" name="NOMEGA">     0</i>
   <i type="int" name="NOMEGAR">     0</i>
   <i type="int" name="NBANDSGW">    -1</i>
   <i type="int" name="NBANDSO">    -1</i>
   <i type="int" name="NBANDSV">    -1</i>
   <i type="int" name="NELM">   100</i>
   <i type="int" name="NELMHF">     1</i>
   <i type="int" name="DIM">     3</i>
   <i type="int" name="ANTIRES">     0</i>
   <i name="OMEGAMAX">    -30.00000000</i>
   <i name="OMEGAMIN">    -30.00000000</i>
   <i name="OMEGATL">   -200.00000000</i>
   <i type="int" name="OMEGAGRID">   140</i>
   <i name="CSHIFT">     -0.10000000</i>
   <i type="logical" name="SELFENERGY"> F  </i>
   <i type="logical" name="LSPECTRAL"> F  </i>
   <i type="logical" name="LSPECTRALGW"> F  </i>
   <i type="logical" name="LSINGLES"> F  </i>
   <i type="logical" name="LFERMIGW"> F  </i>
   <i type="logical" name="ODDONLYGW"> F  </i>
   <i type="logical" name="EVENONLYGW"> F  </i>
   <i type="int" name="NKREDLFX">     1</i>
   <i type="int" name="NKREDLFY">     1</i>
   <i type="int" name="NKREDLFZ">     1</i>
   <i type="int" name="MAXMEM">  2800</i>
   <i type="int" name="TELESCOPE">     0</i>
   <i type="int" name="TAUPAR">     1</i>
   <i type="int" name="OMEGAPAR">    -1</i>
   <i name="LAMBDA">      1.00000000</i>
  </separator>
  <separator name="External order field" >
   <i name="OFIELD_KAPPA">      0.00000000</i>
   <v name="OFIELD_K">      0.00000000      0.00000000      0.00000000</v>
   <i name="OFIELD_Q6_NEAR">      0.00000000</i>
   <i name="OFIELD_Q6_FAR">      0.00000000</i>
   <i name="OFIELD_A">      0.00000000</i>
  </separator>
 </parameters>
 <atominfo>
  <atoms>      16 </atoms>
  <types>       3 </types>
  <array name="atoms" >
   <dimension dim="1">ion</dimension>
   <field type="string">element</field>
   <field type="int">atomtype</field>
   <set>
    <rc><c>P </c><c>   1</c></rc>
    <rc><c>P </c><c>   1</c></rc>
    <rc><c>S </c><c>   2</c></rc>
    <rc><c>S </c><c>   2</c></rc>
    <rc><c>S </c><c>   2</c></rc>
    <rc><c>S </c><c>   2</c></rc>
    <rc><c>S </c><c>   2</c></rc>
    <rc><c>S </c><c>   2</c></rc>
    <rc><c>S </c><c>   2</c></rc>
    <rc><c>S </c><c>   2</c></rc>
    <rc><c>Li</c><c>   3</c></rc>
    <rc><c>Li</c><c>   3</c></rc>
    <rc><c>Li</c><c>   3</c></rc>
    <rc><c>Li</c><c>   3</c></rc>
    <rc><c>Li</c><c>   3</c></rc>
    <rc><c>Li</c><c>   3</c></rc>
   </set>
  </array>
  <array name="atomtypes" >
   <dimension dim="1">type</dimension>
   <field type="int">atomspertype</field>
   <field type="string">element</field>
   <field>mass</field>
   <field>valence</field>
   <field type="string">pseudopotential</field>
   <set>
    <rc><c>   2</c><c>P </c><c>     30.97400000</c><c>      5.00000000</c><c>  PAW P 26Mar2009                       </c></rc>
    <rc><c>   8</c><c>S </c><c>     32.06600000</c><c>      6.00000000</c><c>  PAW S 27Mar2009                       </c></rc>
    <rc><c>   6</c><c>Li</c><c>      7.01000000</c><c>      3.00000000</c><c>  PAW Li_sv 10Sep2004                   </c></rc>
   </set>
  </array>
 </atominfo>
 <structure name="initialpos" >
  <crystal>
   <varray name="basis" >
    <v>       7.58022417       0.00000000       0.00000000 </v>
    <v>       0.00000000       6.33347261       0.00000000 </v>
    <v>       0.00000000       0.00000000       6.01079077 </v>
   </varray>
   <i name="volume">    288.57290863 </i>
   <varray name="rec_basis" >
    <v>       0.13192222       0.00000000       0.00000000 </v>
    <v>       0.00000000       0.15789126       0.00000000 </v>
    <v>       0.00000000       0.00000000       0.16636746 </v>
   </varray>
  </crystal>
  <varray name="positions" >
   <v>       0.00000000       0.31940437       0.30038139 </v>
   <v>       0.50000000       0.68059563       0.80038139 </v>
   <v>       0.22019414       0.16349021       0.19759142 </v>
   <v>       0.27980586       0.83650979       0.69759142 </v>
   <v>       0.72019414       0.83650979       0.69759142 </v>
   <v>       0.77980586       0.16349021       0.19759142 </v>
   <v>       0.00000000       0.61530063       0.16908566 </v>
   <v>       0.50000000       0.38469937       0.66908566 </v>
   <v>       0.00000000       0.32885646       0.63939773 </v>
   <v>       0.50000000       0.67114354       0.13939773 </v>
   <v>       0.00000000       0.65729698       0.78739097 </v>
   <v>       0.50000000       0.34270302       0.28739097 </v>
   <v>       0.25586098       0.18650270       0.80096402 </v>
   <v>       0.24413902       0.81349730       0.30096402 </v>
   <v>       0.75586098       0.81349730       0.30096402 </v>
   <v>       0.74413902       0.18650270       0.80096402 </v>
  </varray>
 </structure>
 <calculation>
  <scstep>
   <time name="dav">    0.20    0.20</time>
   <time name="total">    0.21    0.22</time>
   <energy>
    <i name="alphaZ">     68.38118764 </i>
    <i name="ewald">  -2729.74809507 </i>
    <i name="hartreedc">   -618.90053123 </i>
    <i name="XCdc">    181.79284095 </i>
    <i name="pawpsdc">   2494.22442938 </i>
    <i name="pawaedc">  -2541.12215007 </i>
    <i name="eentropy">      0.00000000 </i>
    <i name="bandstr">   -126.89360362 </i>
    <i name="atom">   3769.08782378 </i>
    <i name="e_fr_energy">    496.82190177 </i>
    <i name="e_wo_entrp">    496.82190177 </i>
    <i name="e_0_energy">    496.82190177 </i>
   </energy>
  </scstep>
  <scstep>
   <time name="dav">    0.20    0.20</time>
   <time name="total">    0.20    0.20</time>
   <energy>
    <i name="e_fr_energy">    -13.00329405 </i>
    <i name="e_wo_entrp">    -13.00329405 </i>
    <i name="e_0_energy">    -13.00329405 </i>
   </energy>
  </scstep>
  <scstep>
   <time name="dav">    0.22    0.22</time>
   <time name="total">    0.22    0.22</time>
   <energy>
    <i name="e_fr_energy">    -72.42847118 </i>
    <i name="e_wo_entrp">    -72.42847118 </i>
    <i name="e_0_energy">    -72.42847118 </i>
   </energy>
  </scstep>
  <scstep>
   <time name="dav">    0.27    0.27</time>
   <time name="total">    0.27    0.27</time>
   <energy>
    <i name="e_fr_energy">    -79.27899971 </i>
    <i name="e_wo_entrp">    -79.27899971 </i>
    <i name="e_0_energy">    -79.27899971 </i>
   </energy>
  </scstep>
  <scstep>
   <time name="dav">    0.23    0.23</time>
   <time name="total">    0.25    0.25</time>
   <energy>
    <i name="e_fr_energy">    -80.12337938 </i>
    <i name="e_wo_entrp">    -80.12337938 </i>
    <i name="e_0_energy">    -80.12337938 </i>
   </energy>
  </scstep>
  <scstep>
   <time name="diag">    0.05    0.05</time>
   <time name="diis">    0.08    0.08</time>
   <time name="orth">    0.01    0.01</time>
   <time name="total">    0.16    0.16</time>
   <energy>
    <i name="e_fr_energy">    -77.78503224 </i>
    <i name="e_wo_entrp">    -77.78503224 </i>
    <i name="e_0_energy">    -77.78503224 </i>
   </energy>
  </scstep>
  <scstep>
   <time name="diag">    0.05    0.05</time>
   <time name="diis">    0.09    0.09</time>
   <time name="orth">    0.01    0.01</time>
   <time name="total">    0.17    0.17</time>
   <energy>
    <i name="e_fr_energy">    -77.36896715 </i>
    <i name="e_wo_entrp">    -77.36896715 </i>
    <i name="e_0_energy">    -77.36896715 </i>
   </energy>
  </scstep>
  <scstep>
   <time name="diag">    0.05    0.05</time>
   <time name="diis">    0.09    0.09</time>
   <time name="orth">    0.01    0.01</time>
   <time name="total">    0.17    0.17</time>
   <energy>
    <i name="e_fr_energy">    -77.30452951 </i>
    <i name="e_wo_entrp">    -77.30452951 </i>
    <i name="e_0_energy">    -77.30452951 </i>
   </energy>
  </scstep>
  <scstep>
   <time name="diag">    0.05    0.05</time>
   <time name="diis">    0.10    0.10</time>
   <time name="orth">    0.01    0.01</time>
   <time name="total">    0.18    0.18</time>
   <energy>
    <i name="e_fr_energy">    -77.29898564 </i>
    <i name="e_wo_entrp">    -77.29898564 </i>
    <i name="e_0_energy">    -77.29898564 </i>
   </energy>
  </scstep>
  <scstep>
   <time name="diag">    0.05    0.05</time>
   <time name="diis">    0.11    0.11</time>
   <time name="orth">    0.01    0.01</time>
   <time name="total">    0.19    0.19</time>
   <energy>
    <i name="e_fr_energy">    -77.29951860 </i>
    <i name="e_wo_entrp">    -77.29951860 </i>
    <i name="e_0_energy">    -77.29951860 </i>
   </energy>
  </scstep>
  <scstep>
   <time name="diag">    0.05    0.05</time>
   <time name="diis">    0.11    0.11</time>
   <time name="orth">    0.01    0.01</time>
   <time name="total">    0.19    0.19</time>
   <energy>
    <i name="e_fr_energy">    -77.29967564 </i>
    <i name="e_wo_entrp">    -77.29967564 </i>
    <i name="e_0_energy">    -77.29967564 </i>
   </energy>
  </scstep>
  <scstep>
   <time name="diag">    0.05    0.05</time>
   <time name="diis">    0.10    0.10</time>
   <time name="orth">    0.01    0.01</time>
   <time name="total">    0.18    0.18</time>
   <energy>
    <i name="e_fr_energy">    -77.29974420 </i>
    <i name="e_wo_entrp">    -77.29974420 </i>
    <i name="e_0_energy">    -77.29974420 </i>
   </energy>
  </scstep>
  <scstep>
   <time name="diag">    0.05    0.05</time>
   <time name="diis">    0.07    0.07</time>
   <time name="orth">    0.01    0.01</time>
   <time name="total">    0.15    0.15</time>
   <energy>
    <i name="e_fr_energy">    -77.29976000 </i>
    <i name="e_wo_entrp">    -77.29976000 </i>
    <i name="e_0_energy">    -77.29976000 </i>
   </energy>
  </scstep>
  <scstep>
   <time name="diag">    0.05    0.05</time>
   <time name="diis">    0.07    0.07</time>
   <time name="orth">    0.01    0.01</time>
   <time name="total">    0.13    0.13</time>
   <energy>
    <i name="alphaZ">     68.38118764 </i>
    <i name="ewald">  -2729.74809507 </i>
    <i name="hartreedc">   -650.50825706 </i>
    <i name="XCdc">    185.53974564 </i>
    <i name="pawpsdc">   7340.59959020 </i>
    <i name="pawaedc">  -7390.57496112 </i>
    <i name="eentropy">      0.00000000 </i>
    <i name="bandstr">   -670.07679698 </i>
    <i name="atom">   3769.08782378 </i>
    <i name="e_fr_energy">    -77.29976298 </i>
    <i name="e_wo_entrp">    -77.29976298 </i>
    <i name="e_0_energy">    -77.29976298 </i>
   </energy>
  </scstep>
  <structure>
   <crystal>
    <varray name="basis" >
     <v>       7.58022417       0.00000000       0.00000000 </v>
     <v>       0.00000000       6.33347261       0.00000000 </v>
     <v>       0.00000000       0.00000000       6.01079077 </v>
    </varray>
    <i name="volume">    288.57290863 </i>
    <varray name="rec_basis" >
     <v>       0.13192222       0.00000000       0.00000000 </v>
     <v>       0.00000000       0.15789126       0.00000000 </v>
     <v>       0.00000000       0.00000000       0.16636746 </v>
    </varray>
   </crystal>
   <varray name="positions" >
    <v>       0.00000000       0.31940437       0.30038139 </v>
    <v>       0.50000000       0.68059563       0.80038139 </v>
    <v>       0.22019414       0.16349021       0.19759142 </v>
    <v>       0.27980586       0.83650979       0.69759142 </v>
    <v>       0.72019414       0.83650979       0.69759142 </v>
    <v>       0.77980586       0.16349021       0.19759142 </v>
    <v>       0.00000000       0.61530063       0.16908566 </v>
    <v>       0.50000000       0.38469937       0.66908566 </v>
    <v>       0.00000000       0.32885646       0.63939773 </v>
    <v>       0.50000000       0.67114354       0.13939773 </v>
    <v>       0.00000000       0.65729698       0.78739097 </v>
    <v>       0.50000000       0.34270302       0.28739097 </v>
    <v>       0.25586098       0.18650270       0.80096402 </v>
    <v>       0.24413902       0.81349730       0.30096402 </v>
    <v>       0.75586098       0.81349730       0.30096402 </v>
    <v>       0.74413902       0.18650270       0.80096402 </v>
   </varray>
  </structure>
  <varray name="forces" >
   <v>       0.00000000       0.00422452      -0.00251871 </v>
   <v>       0.00000000      -0.00422452      -0.00251871 </v>
   <v>       0.02935028       0.13660914      -0.20486737 </v>
   <v>      -0.02935028      -0.13660914      -0.20486737 </v>
   <v>       0.02935028      -0.13660914      -0.20486737 </v>
   <v>      -0.02935028       0.13660914      -0.20486737 </v>
   <v>       0.00000000       0.03498217       0.41578662 </v>
   <v>       0.00000000      -0.03498217       0.41578662 </v>
   <v>       0.00000000      -0.35691957      -0.03749848 </v>
   <v>       0.00000000       0.35691957      -0.03749848 </v>
   <v>       0.00000000       0.24847503      -0.11653516 </v>
   <v>       0.00000000      -0.24847503      -0.11653516 </v>
   <v>       0.01627675       0.19738156       0.07525024 </v>
   <v>      -0.01627675      -0.19738156       0.07525024 </v>
   <v>       0.01627675      -0.19738156       0.07525024 </v>
   <v>      -0.01627675       0.19738156       0.07525024 </v>
  </varray>
  <varray name="stress" >
   <v>      -9.81301105       0.00000000       0.00000000 </v>
   <v>       0.00000000      11.55463379       0.00000000 </v>
   <v>       0.00000000       0.00000000      -0.55017084 </v>
  </varray>
  <energy>
   <i name="e_fr_energy">    -77.29976298 </i>
   <i name="e_wo_entrp">    -77.29976298 </i>
   <i name="e_0_energy">      0.00000000 </i>
  </energy>
  <time name="totalsc">    2.86    2.88</time>
  <eigenvalues>
   <array>
    <dimension dim="1">band</dimension>
    <dimension dim="2">kpoint</dimension>
    <dimension dim="3">spin</dimension>
    <field>eigene</field>
    <field>occ</field>
    <set>
     <set comment="spin 1">
      <set comment="kpoint 1">
       <r>  -40.9629    1.0000 </r>
       <r>  -40.9628    1.0000 </r>
       <r>  -40.7633    1.0000 </r>
       <r>  -40.7627    1.0000 </r>
       <r>  -40.7626    1.0000 </r>
       <r>  -40.7619    1.0000 </r>
       <r>  -12.6437    1.0000 </r>
       <r>  -12.4703    1.0000 </r>
       <r>   -9.5817    1.0000 </r>
       <r>   -9.5224    1.0000 </r>
       <r>   -9.4271    1.0000 </r>
       <r>   -9.4090    1.0000 </r>
       <r>   -9.3363    1.0000 </r>
       <r>   -9.3251    1.0000 </r>
       <r>   -5.6516    1.0000 </r>
       <r>   -5.0943    1.0000 </r>
       <r>   -2.6571    1.0000 </r>
       <r>   -2.6533    1.0000 </r>
       <r>   -2.4892    1.0000 </r>
       <r>   -2.2634    1.0000 </r>
       <r>   -2.1512    1.0000 </r>
       <r>   -2.0956    1.0000 </r>
       <r>   -0.1027    1.0000 </r>
       <r>   -0.0212    1.0000 </r>
       <r>    0.1484    1.0000 </r>
       <r>    0.2279    1.0000 </r>
       <r>    0.3304    1.0000 </r>
       <r>    0.5276    1.0000 </r>
       <r>    0.8343    1.0000 </r>
       <r>    1.1151    1.0000 </r>
       <r>    1.1958    1.0000 </r>
       <r>    1.3220    1.0000 </r>
       <r>    1.7603    1.0000 </r>
       <r>    1.8106    1.0000 </r>
       <r>    1.8925    1.0000 </r>
       <r>    1.9082    1.0000 </r>
       <r>    1.9541    1.0000 </r>
       <r>    2.1719    1.0000 </r>
       <r>    5.5545    0.0000 </r>
       <r>    5.6950    0.0000 </r>
       <r>    5.8396    0.0000 </r>
       <r>    6.3899    0.0000 </r>
       <r>    6.4087    0.0000 </r>
       <r>    7.1106    0.0000 </r>
       <r>    7.1913    0.0000 </r>
       <r>    7.2915    0.0000 </r>
       <r>    8.0406    0.0000 </r>
       <r>    8.5754    0.0000 </r>
      </set>
      <set comment="kpoint 2">
       <r>  -40.9629    1.0000 </r>
       <r>  -40.9628    1.0000 </r>
       <r>  -40.7632    1.0000 </r>
       <r>  -40.7628    1.0000 </r>
       <r>  -40.7624    1.0000 </r>
       <r>  -40.7621    1.0000 </r>
       <r>  -12.6015    1.0000 </r>
       <r>  -12.5149    1.0000 </r>
       <r>   -9.5462    1.0000 </r>
       <r>   -9.4804    1.0000 </r>
       <r>   -9.4259    1.0000 </r>
       <r>   -9.4159    1.0000 </r>
       <r>   -9.3982    1.0000 </r>
       <r>   -9.3547    1.0000 </r>
       <r>   -5.4764    1.0000 </r>
       <r>   -5.1984    1.0000 </r>
       <r>   -2.6812    1.0000 </r>
       <r>   -2.6312    1.0000 </r>
       <r>   -2.5291    1.0000 </r>
       <r>   -2.2430    1.0000 </r>
       <r>   -2.1559    1.0000 </r>
       <r>   -2.1489    1.0000 </r>
       <r>   -0.1011    1.0000 </r>
       <r>    0.0326    1.0000 </r>
       <r>    0.1502    1.0000 </r>
       <r>    0.3737    1.0000 </r>
       <r>    0.4047    1.0000 </r>
       <r>    0.5338    1.0000 </r>
       <r>    0.9432    1.0000 </r>
       <r>    1.1382    1.0000 </r>
       <r>    1.2781    1.0000 </r>
       <r>    1.3663    1.0000 </r>
       <r>    1.4838    1.0000 </r>
       <r>    1.5416    1.0000 </r>
       <r>    1.7435    1.0000 </r>
       <r>    1.8273    1.0000 </r>
       <r>    1.8873    1.0000 </r>
       <r>    1.9573    1.0000 </r>
       <r>    5.8790    0.0000 </r>
       <r>    6.0206    0.0000 </r>
       <r>    6.3243    0.0000 </r>
       <r>    6.4355    0.0000 </r>
       <r>    6.6989    0.0000 </r>
       <r>    6.8558    0.0000 </r>
       <r>    7.1217    0.0000 </r>
       <r>    7.1439    0.0000 </r>
       <r>    7.9857    0.0000 </r>
       <r>    8.6959    0.0000 </r>
      </set>
      <set comment="kpoint 3">
       <r>  -40.9629    1.0000 </r>
       <r>  -40.9628    1.0000 </r>
       <r>  -40.7633    1.0000 </r>
       <r>  -40.7627    1.0000 </r>
       <r>  -40.7626    1.0000 </r>
       <r>  -40.7618    1.0000 </r>
       <r>  -12.5953    1.0000 </r>
       <r>  -12.4924    1.0000 </r>
       <r>   -9.6239    1.0000 </r>
       <r>   -9.5578    1.0000 </r>
       <r>   -9.4413    1.0000 </r>
       <r>   -9.4023    1.0000 </r>
       <r>   -9.3621    1.0000 </r>
       <r>   -9.3392    1.0000 </r>
       <r>   -5.4431    1.0000 </r>
       <r>   -5.1511    1.0000 </r>
       <r>   -2.6870    1.0000 </r>
       <r>   -2.5777    1.0000 </r>
       <r>   -2.3571    1.0000 </r>
       <r>   -2.2830    1.0000 </r>
       <r>   -2.1522    1.0000 </r>
       <r>   -2.1161    1.0000 </r>
       <r>   -0.1356    1.0000 </r>
       <r>    0.0458    1.0000 </r>
       <r>    0.0637    1.0000 </r>
       <r>    0.2255    1.0000 </r>
       <r>    0.5491    1.0000 </r>
       <r>    0.5920    1.0000 </r>
       <r>    0.9279    1.0000 </r>
       <r>    0.9920    1.0000 </r>
       <r>    1.2988    1.0000 </r>
       <r>    1.4414    1.0000 </r>
       <r>    1.4843    1.0000 </r>
       <r>    1.5297    1.0000 </r>
       <r>    1.7153    1.0000 </r>
       <r>    1.8413    1.0000 </r>
       <r>    1.9540    1.0000 </r>
       <r>    2.2124    1.0000 </r>
       <r>    5.0374    0.0000 </r>
       <r>    5.8723    0.0000 </r>
       <r>    6.3321    0.0000 </r>
       <r>    6.4680    0.0000 </r>
       <r>    6.6522    0.0000 </r>
       <r>    6.8904    0.0000 </r>
       <r>    7.0537    0.0000 </r>
       <r>    7.1161    0.0000 </r>
       <r>    8.1104    0.0000 </r>
       <r>    8.5231    0.0000 </r>
      </set>
      <set comment="kpoint 4">
       <r>  -40.9628    1.0000 </r>
       <r>  -40.9628    1.0000 </r>
       <r>  -40.7632    1.0000 </r>
       <r>  -40.7628    1.0000 </r>
       <r>  -40.7624    1.0000 </r>
       <r>  -40.7620    1.0000 </r>
       <r>  -12.5685    1.0000 </r>
       <r>  -12.5170    1.0000 </r>
       <r>   -9.6392    1.0000 </r>
       <r>   -9.5963    1.0000 </r>
       <r>   -9.4390    1.0000 </r>
       <r>   -9.3845    1.0000 </r>
       <r>   -9.3531    1.0000 </r>
       <r>   -9.3316    1.0000 </r>
       <r>   -5.3323    1.0000 </r>
       <r>   -5.1864    1.0000 </r>
       <r>   -2.6388    1.0000 </r>
       <r>   -2.5548    1.0000 </r>
       <r>   -2.4214    1.0000 </r>
       <r>   -2.2825    1.0000 </r>
       <r>   -2.1687    1.0000 </r>
       <r>   -2.1425    1.0000 </r>
       <r>   -0.1524    1.0000 </r>
       <r>   -0.0183    1.0000 </r>
       <r>    0.0935    1.0000 </r>
       <r>    0.2702    1.0000 </r>
       <r>    0.5523    1.0000 </r>
       <r>    0.7672    1.0000 </r>
       <r>    0.8835    1.0000 </r>
       <r>    0.9438    1.0000 </r>
       <r>    1.1696    1.0000 </r>
       <r>    1.3030    1.0000 </r>
       <r>    1.3591    1.0000 </r>
       <r>    1.4778    1.0000 </r>
       <r>    1.7595    1.0000 </r>
       <r>    1.8984    1.0000 </r>
       <r>    1.9504    1.0000 </r>
       <r>    2.0426    1.0000 </r>
       <r>    5.5493    0.0000 </r>
       <r>    6.0519    0.0000 </r>
       <r>    6.3782    0.0000 </r>
       <r>    6.4739    0.0000 </r>
       <r>    6.7685    0.0000 </r>
       <r>    6.8137    0.0000 </r>
       <r>    7.1336    0.0000 </r>
       <r>    7.1872    0.0000 </r>
       <r>    8.2875    0.0000 </r>
       <r>    8.7888    0.0000 </r>
      </set>
      <set comment="kpoint 5">
       <r>  -40.9628    1.0000 </r>
       <r>  -40.9628    1.0000 </r>
       <r>  -40.7632    1.0000 </r>
       <r>  -40.7629    1.0000 </r>
       <r>  -40.7624    1.0000 </r>
       <r>  -40.7621    1.0000 </r>
       <r>  -12.5713    1.0000 </r>
       <r>  -12.4813    1.0000 </r>
       <r>   -9.6027    1.0000 </r>
       <r>   -9.5230    1.0000 </r>
       <r>   -9.5078    1.0000 </r>
       <r>   -9.4213    1.0000 </r>
       <r>   -9.4050    1.0000 </r>
       <r>   -9.4004    1.0000 </r>
       <r>   -5.4644    1.0000 </r>
       <r>   -5.1532    1.0000 </r>
       <r>   -2.4717    1.0000 </r>
       <r>   -2.3620    1.0000 </r>
       <r>   -2.1959    1.0000 </r>
       <r>   -2.1903    1.0000 </r>
       <r>   -2.1139    1.0000 </r>
       <r>   -2.0454    1.0000 </r>
       <r>   -0.2425    1.0000 </r>
       <r>   -0.2381    1.0000 </r>
       <r>   -0.1614    1.0000 </r>
       <r>   -0.0586    1.0000 </r>
       <r>    0.3302    1.0000 </r>
       <r>    0.6785    1.0000 </r>
       <r>    1.0032    1.0000 </r>
       <r>    1.0584    1.0000 </r>
       <r>    1.0990    1.0000 </r>
       <r>    1.4134    1.0000 </r>
       <r>    1.6573    1.0000 </r>
       <r>    1.7975    1.0000 </r>
       <r>    1.8873    1.0000 </r>
       <r>    1.8891    1.0000 </r>
       <r>    1.9186    1.0000 </r>
       <r>    2.2530    1.0000 </r>
       <r>    4.9818    0.0000 </r>
       <r>    5.4753    0.0000 </r>
       <r>    6.0469    0.0000 </r>
       <r>    6.3669    0.0000 </r>
       <r>    6.8402    0.0000 </r>
       <r>    6.9620    0.0000 </r>
       <r>    7.0483    0.0000 </r>
       <r>    7.3283    0.0000 </r>
       <r>    8.2995    0.0000 </r>
       <r>    8.5974    0.0000 </r>
      </set>
      <set comment="kpoint 6">
       <r>  -40.9628    1.0000 </r>
       <r>  -40.9628    1.0000 </r>
       <r>  -40.7630    1.0000 </r>
       <r>  -40.7627    1.0000 </r>
       <r>  -40.7625    1.0000 </r>
       <r>  -40.7622    1.0000 </r>
       <r>  -12.5474    1.0000 </r>
       <r>  -12.5023    1.0000 </r>
       <r>   -9.6478    1.0000 </r>
       <r>   -9.5951    1.0000 </r>
       <r>   -9.4457    1.0000 </r>
       <r>   -9.4094    1.0000 </r>
       <r>   -9.4021    1.0000 </r>
       <r>   -9.3748    1.0000 </r>
       <r>   -5.3538    1.0000 </r>
       <r>   -5.1977    1.0000 </r>
       <r>   -2.4760    1.0000 </r>
       <r>   -2.4200    1.0000 </r>
       <r>   -2.2545    1.0000 </r>
       <r>   -2.1947    1.0000 </r>
       <r>   -2.0664    1.0000 </r>
       <r>   -2.0132    1.0000 </r>
       <r>   -0.2183    1.0000 </r>
       <r>   -0.1558    1.0000 </r>
       <r>    0.0193    1.0000 </r>
       <r>    0.0744    1.0000 </r>
       <r>    0.2557    1.0000 </r>
       <r>    0.5747    1.0000 </r>
       <r>    0.8900    1.0000 </r>
       <r>    0.9687    1.0000 </r>
       <r>    1.1497    1.0000 </r>
       <r>    1.2200    1.0000 </r>
       <r>    1.5505    1.0000 </r>
       <r>    1.6496    1.0000 </r>
       <r>    1.7700    1.0000 </r>
       <r>    1.8618    1.0000 </r>
       <r>    1.9953    1.0000 </r>
       <r>    2.1064    1.0000 </r>
       <r>    5.3603    0.0000 </r>
       <r>    5.7123    0.0000 </r>
       <r>    6.5235    0.0000 </r>
       <r>    6.5924    0.0000 </r>
       <r>    6.8644    0.0000 </r>
       <r>    6.9501    0.0000 </r>
       <r>    7.1607    0.0000 </r>
       <r>    7.2486    0.0000 </r>
       <r>    8.1026    0.0000 </r>
       <r>    8.5283    0.0000 </r>
      </set>
      <set comment="kpoint 7">
       <r>  -40.9628    1.0000 </r>
       <r>  -40.9628    1.0000 </r>
       <r>  -40.7632    1.0000 </r>
       <r>  -40.7628    1.0000 </r>
       <r>  -40.7624    1.0000 </r>
       <r>  -40.7621    1.0000 </r>
       <r>  -12.5382    1.0000 </r>
       <r>  -12.4847    1.0000 </r>
       <r>   -9.6195    1.0000 </r>
       <r>   -9.5486    1.0000 </r>
       <r>   -9.5103    1.0000 </r>
       <r>   -9.4890    1.0000 </r>
       <r>   -9.4124    1.0000 </r>
       <r>   -9.4091    1.0000 </r>
       <r>   -5.3104    1.0000 </r>
       <r>   -5.1471    1.0000 </r>
       <r>   -2.3877    1.0000 </r>
       <r>   -2.3089    1.0000 </r>
       <r>   -2.2687    1.0000 </r>
       <r>   -2.1714    1.0000 </r>
       <r>   -2.1073    1.0000 </r>
       <r>   -2.0296    1.0000 </r>
       <r>   -0.1908    1.0000 </r>
       <r>   -0.0720    1.0000 </r>
       <r>   -0.0662    1.0000 </r>
       <r>    0.0948    1.0000 </r>
       <r>    0.3725    1.0000 </r>
       <r>    0.5138    1.0000 </r>
       <r>    0.9126    1.0000 </r>
       <r>    0.9358    1.0000 </r>
       <r>    1.1106    1.0000 </r>
       <r>    1.3113    1.0000 </r>
       <r>    1.5840    1.0000 </r>
       <r>    1.6323    1.0000 </r>
       <r>    1.7748    1.0000 </r>
       <r>    1.9313    1.0000 </r>
       <r>    2.0071    1.0000 </r>
       <r>    2.1300    1.0000 </r>
       <r>    4.9751    0.0000 </r>
       <r>    5.2692    0.0000 </r>
       <r>    6.3342    0.0000 </r>
       <r>    6.5100    0.0000 </r>
       <r>    6.6161    0.0000 </r>
       <r>    6.7171    0.0000 </r>
       <r>    6.8734    0.0000 </r>
       <r>    6.9580    0.0000 </r>
       <r>    8.1676    0.0000 </r>
       <r>    8.6332    0.0000 </r>
      </set>
      <set comment="kpoint 8">
       <r>  -40.9628    1.0000 </r>
       <r>  -40.9628    1.0000 </r>
       <r>  -40.7630    1.0000 </r>
       <r>  -40.7627    1.0000 </r>
       <r>  -40.7626    1.0000 </r>
       <r>  -40.7622    1.0000 </r>
       <r>  -12.5231    1.0000 </r>
       <r>  -12.4963    1.0000 </r>
       <r>   -9.6156    1.0000 </r>
       <r>   -9.5821    1.0000 </r>
       <r>   -9.5352    1.0000 </r>
       <r>   -9.4685    1.0000 </r>
       <r>   -9.4181    1.0000 </r>
       <r>   -9.3931    1.0000 </r>
       <r>   -5.2189    1.0000 </r>
       <r>   -5.1367    1.0000 </r>
       <r>   -2.4230    1.0000 </r>
       <r>   -2.3536    1.0000 </r>
       <r>   -2.2080    1.0000 </r>
       <r>   -2.1939    1.0000 </r>
       <r>   -2.0493    1.0000 </r>
       <r>   -2.0304    1.0000 </r>
       <r>   -0.3165    1.0000 </r>
       <r>   -0.1860    1.0000 </r>
       <r>   -0.0071    1.0000 </r>
       <r>    0.0935    1.0000 </r>
       <r>    0.4722    1.0000 </r>
       <r>    0.5561    1.0000 </r>
       <r>    0.7996    1.0000 </r>
       <r>    0.9254    1.0000 </r>
       <r>    1.0662    1.0000 </r>
       <r>    1.1694    1.0000 </r>
       <r>    1.5402    1.0000 </r>
       <r>    1.6119    1.0000 </r>
       <r>    1.7590    1.0000 </r>
       <r>    1.8459    1.0000 </r>
       <r>    2.0243    1.0000 </r>
       <r>    2.0742    1.0000 </r>
       <r>    5.3322    0.0000 </r>
       <r>    5.5939    0.0000 </r>
       <r>    6.4162    0.0000 </r>
       <r>    6.5374    0.0000 </r>
       <r>    6.7372    0.0000 </r>
       <r>    6.8639    0.0000 </r>
       <r>    7.0235    0.0000 </r>
       <r>    7.1715    0.0000 </r>
       <r>    8.1598    0.0000 </r>
       <r>    8.4718    0.0000 </r>
      </set>
     </set>
    </set>
   </array>
  </eigenvalues>
  <separator name="orbital magnetization" >
   <v name="MAGDIPOLOUT">      0.00000000      0.00000000      0.00000000</v>
  </separator>
  <dos>
   <i name="efermi">      2.38323972 </i>
   <total>
    <array>
     <dimension dim="1">gridpoints</dimension>
     <dimension dim="2">spin</dimension>
     <field>energy</field>
     <field>total</field>
     <field>integrated</field>
     <set>
      <set comment="spin 1">
       <r>   -43.4505     0.0000     0.0000 </r>
       <r>   -43.2680     0.0000     0.0000 </r>
       <r>   -43.0856     0.0000     0.0000 </r>
       <r>   -42.9032     0.0000     0.0000 </r>
       <r>   -42.7208     0.0000     0.0000 </r>
       <r>   -42.5384     0.0000     0.0000 </r>
       <r>   -42.3559     0.0000     0.0000 </r>
       <r>   -42.1735     0.0000     0.0000 </r>
       <r>   -41.9911     0.0000     0.0000 </r>
       <r>   -41.8087     0.0000     0.0000 </r>
       <r>   -41.6262     0.0000     0.0000 </r>
       <r>   -41.4438     0.0000     0.0000 </r>
       <r>   -41.2614     0.0000     0.0000 </r>
       <r>   -41.0790     0.0000     0.0000 </r>
       <r>   -40.8965     0.0000     4.0000 </r>
       <r>   -40.7141     0.0000    12.0000 </r>
       <r>   -40.5317     0.0000    12.0000 </r>
       <r>   -40.3493     0.0000    12.0000 </r>
       <r>   -40.1669     0.0000    12.0000 </r>
       <r>   -39.9844     0.0000    12.0000 </r>
       <r>   -39.8020     0.0000    12.0000 </r>
       <r>   -39.6196     0.0000    12.0000 </r>
       <r>   -39.4372     0.0000    12.0000 </r>
       <r>   -39.2547     0.0000    12.0000 </r>
       <r>   -39.0723     0.0000    12.0000 </r>
       <r>   -38.8899     0.0000    12.0000 </r>
       <r>   -38.7075     0.0000    12.0000 </r>
       <r>   -38.5251     0.0000    12.0000 </r>
       <r>   -38.3426     0.0000    12.0000 </r>
       <r>   -38.1602     0.0000    12.0000 </r>
       <r>   -37.9778     0.0000    12.0000 </r>
       <r>   -37.7954     0.0000    12.0000 </r>
       <r>   -37.6129     0.0000    12.0000 </r>
       <r>   -37.4305     0.0000    12.0000 </r>
       <r>   -37.2481     0.0000    12.0000 </r>
       <r>   -37.0657     0.0000    12.0000 </r>
       <r>   -36.8832     0.0000    12.0000 </r>
       <r>   -36.7008     0.0000    12.0000 </r>
       <r>   -36.5184     0.0000    12.0000 </r>
       <r>   -36.3360     0.0000    12.0000 </r>
       <r>   -36.1536     0.0000    12.0000 </r>
       <r>   -35.9711     0.0000    12.0000 </r>
       <r>   -35.7887     0.0000    12.0000 </r>
       <r>   -35.6063     0.0000    12.0000 </r>
       <r>   -35.4239     0.0000    12.0000 </r>
       <r>   -35.2414     0.0000    12.0000 </r>
       <r>   -35.0590     0.0000    12.0000 </r>
       <r>   -34.8766     0.0000    12.0000 </r>
       <r>   -34.6942     0.0000    12.0000 </r>
       <r>   -34.5118     0.0000    12.0000 </r>
       <r>   -34.3293     0.0000    12.0000 </r>
       <r>   -34.1469     0.0000    12.0000 </r>
       <r>   -33.9645     0.0000    12.0000 </r>
       <r>   -33.7821     0.0000    12.0000 </r>
       <r>   -33.5996     0.0000    12.0000 </r>
       <r>   -33.4172     0.0000    12.0000 </r>
       <r>   -33.2348     0.0000    12.0000 </r>
       <r>   -33.0524     0.0000    12.0000 </r>
       <r>   -32.8699     0.0000    12.0000 </r>
       <r>   -32.6875     0.0000    12.0000 </r>
       <r>   -32.5051     0.0000    12.0000 </r>
       <r>   -32.3227     0.0000    12.0000 </r>
       <r>   -32.1403     0.0000    12.0000 </r>
       <r>   -31.9578     0.0000    12.0000 </r>
       <r>   -31.7754     0.0000    12.0000 </r>
       <r>   -31.5930     0.0000    12.0000 </r>
       <r>   -31.4106     0.0000    12.0000 </r>
       <r>   -31.2281     0.0000    12.0000 </r>
       <r>   -31.0457     0.0000    12.0000 </r>
       <r>   -30.8633     0.0000    12.0000 </r>
       <r>   -30.6809     0.0000    12.0000 </r>
       <r>   -30.4985     0.0000    12.0000 </r>
       <r>   -30.3160     0.0000    12.0000 </r>
       <r>   -30.1336     0.0000    12.0000 </r>
       <r>   -29.9512     0.0000    12.0000 </r>
       <r>   -29.7688     0.0000    12.0000 </r>
       <r>   -29.5863     0.0000    12.0000 </r>
       <r>   -29.4039     0.0000    12.0000 </r>
       <r>   -29.2215     0.0000    12.0000 </r>
       <r>   -29.0391     0.0000    12.0000 </r>
       <r>   -28.8566     0.0000    12.0000 </r>
       <r>   -28.6742     0.0000    12.0000 </r>
       <r>   -28.4918     0.0000    12.0000 </r>
       <r>   -28.3094     0.0000    12.0000 </r>
       <r>   -28.1270     0.0000    12.0000 </r>
       <r>   -27.9445     0.0000    12.0000 </r>
       <r>   -27.7621     0.0000    12.0000 </r>
       <r>   -27.5797     0.0000    12.0000 </r>
       <r>   -27.3973     0.0000    12.0000 </r>
       <r>   -27.2148     0.0000    12.0000 </r>
       <r>   -27.0324     0.0000    12.0000 </r>
       <r>   -26.8500     0.0000    12.0000 </r>
       <r>   -26.6676     0.0000    12.0000 </r>
       <r>   -26.4852     0.0000    12.0000 </r>
       <r>   -26.3027     0.0000    12.0000 </r>
       <r>   -26.1203     0.0000    12.0000 </r>
       <r>   -25.9379     0.0000    12.0000 </r>
       <r>   -25.7555     0.0000    12.0000 </r>
       <r>   -25.5730     0.0000    12.0000 </r>
       <r>   -25.3906     0.0000    12.0000 </r>
       <r>   -25.2082     0.0000    12.0000 </r>
       <r>   -25.0258     0.0000    12.0000 </r>
       <r>   -24.8434     0.0000    12.0000 </r>
       <r>   -24.6609     0.0000    12.0000 </r>
       <r>   -24.4785     0.0000    12.0000 </r>
       <r>   -24.2961     0.0000    12.0000 </r>
       <r>   -24.1137     0.0000    12.0000 </r>
       <r>   -23.9312     0.0000    12.0000 </r>
       <r>   -23.7488     0.0000    12.0000 </r>
       <r>   -23.5664     0.0000    12.0000 </r>
       <r>   -23.3840     0.0000    12.0000 </r>
       <r>   -23.2015     0.0000    12.0000 </r>
       <r>   -23.0191     0.0000    12.0000 </r>
       <r>   -22.8367     0.0000    12.0000 </r>
       <r>   -22.6543     0.0000    12.0000 </r>
       <r>   -22.4719     0.0000    12.0000 </r>
       <r>   -22.2894     0.0000    12.0000 </r>
       <r>   -22.1070     0.0000    12.0000 </r>
       <r>   -21.9246     0.0000    12.0000 </r>
       <r>   -21.7422     0.0000    12.0000 </r>
       <r>   -21.5597     0.0000    12.0000 </r>
       <r>   -21.3773     0.0000    12.0000 </r>
       <r>   -21.1949     0.0000    12.0000 </r>
       <r>   -21.0125     0.0000    12.0000 </r>
       <r>   -20.8301     0.0000    12.0000 </r>
       <r>   -20.6476     0.0000    12.0000 </r>
       <r>   -20.4652     0.0000    12.0000 </r>
       <r>   -20.2828     0.0000    12.0000 </r>
       <r>   -20.1004     0.0000    12.0000 </r>
       <r>   -19.9179     0.0000    12.0000 </r>
       <r>   -19.7355     0.0000    12.0000 </r>
       <r>   -19.5531     0.0000    12.0000 </r>
       <r>   -19.3707     0.0000    12.0000 </r>
       <r>   -19.1882     0.0000    12.0000 </r>
       <r>   -19.0058     0.0000    12.0000 </r>
       <r>   -18.8234     0.0000    12.0000 </r>
       <r>   -18.6410     0.0000    12.0000 </r>
       <r>   -18.4586     0.0000    12.0000 </r>
       <r>   -18.2761     0.0000    12.0000 </r>
       <r>   -18.0937     0.0000    12.0000 </r>
       <r>   -17.9113     0.0000    12.0000 </r>
       <r>   -17.7289     0.0000    12.0000 </r>
       <r>   -17.5464     0.0000    12.0000 </r>
       <r>   -17.3640     0.0000    12.0000 </r>
       <r>   -17.1816     0.0000    12.0000 </r>
       <r>   -16.9992     0.0000    12.0000 </r>
       <r>   -16.8168     0.0000    12.0000 </r>
       <r>   -16.6343     0.0000    12.0000 </r>
       <r>   -16.4519     0.0000    12.0000 </r>
       <r>   -16.2695     0.0000    12.0000 </r>
       <r>   -16.0871     0.0000    12.0000 </r>
       <r>   -15.9046     0.0000    12.0000 </r>
       <r>   -15.7222     0.0000    12.0000 </r>
       <r>   -15.5398     0.0000    12.0000 </r>
       <r>   -15.3574     0.0000    12.0000 </r>
       <r>   -15.1749     0.0000    12.0000 </r>
       <r>   -14.9925     0.0000    12.0000 </r>
       <r>   -14.8101     0.0000    12.0000 </r>
       <r>   -14.6277     0.0000    12.0000 </r>
       <r>   -14.4453     0.0000    12.0000 </r>
       <r>   -14.2628     0.0000    12.0000 </r>
       <r>   -14.0804     0.0000    12.0000 </r>
       <r>   -13.8980     0.0000    12.0000 </r>
       <r>   -13.7156     0.0000    12.0000 </r>
       <r>   -13.5331     0.0000    12.0000 </r>
       <r>   -13.3507     0.0000    12.0000 </r>
       <r>   -13.1683     0.0000    12.0000 </r>
       <r>   -12.9859     0.0000    12.0000 </r>
       <r>   -12.8035     0.0000    12.0000 </r>
       <r>   -12.6210     1.3244    12.0100 </r>
       <r>   -12.4386     0.0000    16.0000 </r>
       <r>   -12.2562     0.0000    16.0000 </r>
       <r>   -12.0738     0.0000    16.0000 </r>
       <r>   -11.8913     0.0000    16.0000 </r>
       <r>   -11.7089     0.0000    16.0000 </r>
       <r>   -11.5265     0.0000    16.0000 </r>
       <r>   -11.3441     0.0000    16.0000 </r>
       <r>   -11.1616     0.0000    16.0000 </r>
       <r>   -10.9792     0.0000    16.0000 </r>
       <r>   -10.7968     0.0000    16.0000 </r>
       <r>   -10.6144     0.0000    16.0000 </r>
       <r>   -10.4320     0.0000    16.0000 </r>
       <r>   -10.2495     0.0000    16.0000 </r>
       <r>   -10.0671     0.0000    16.0000 </r>
       <r>    -9.8847     0.0000    16.0000 </r>
       <r>    -9.7023     0.0000    16.0000 </r>
       <r>    -9.5198    23.6740    20.2024 </r>
       <r>    -9.3374    12.9615    27.9462 </r>
       <r>    -9.1550     0.0000    28.0000 </r>
       <r>    -8.9726     0.0000    28.0000 </r>
       <r>    -8.7902     0.0000    28.0000 </r>
       <r>    -8.6077     0.0000    28.0000 </r>
       <r>    -8.4253     0.0000    28.0000 </r>
       <r>    -8.2429     0.0000    28.0000 </r>
       <r>    -8.0605     0.0000    28.0000 </r>
       <r>    -7.8780     0.0000    28.0000 </r>
       <r>    -7.6956     0.0000    28.0000 </r>
       <r>    -7.5132     0.0000    28.0000 </r>
       <r>    -7.3308     0.0000    28.0000 </r>
       <r>    -7.1483     0.0000    28.0000 </r>
       <r>    -6.9659     0.0000    28.0000 </r>
       <r>    -6.7835     0.0000    28.0000 </r>
       <r>    -6.6011     0.0000    28.0000 </r>
       <r>    -6.4187     0.0000    28.0000 </r>
       <r>    -6.2362     0.0000    28.0000 </r>
       <r>    -6.0538     0.0000    28.0000 </r>
       <r>    -5.8714     0.0000    28.0000 </r>
       <r>    -5.6890     0.0000    28.0000 </r>
       <r>    -5.5065     1.1751    28.0568 </r>
       <r>    -5.3241    10.8904    29.0739 </r>
       <r>    -5.1417    41.3401    31.6757 </r>
       <r>    -4.9593     0.0000    32.0000 </r>
       <r>    -4.7769     0.0000    32.0000 </r>
       <r>    -4.5944     0.0000    32.0000 </r>
       <r>    -4.4120     0.0000    32.0000 </r>
       <r>    -4.2296     0.0000    32.0000 </r>
       <r>    -4.0472     0.0000    32.0000 </r>
       <r>    -3.8647     0.0000    32.0000 </r>
       <r>    -3.6823     0.0000    32.0000 </r>
       <r>    -3.4999     0.0000    32.0000 </r>
       <r>    -3.3175     0.0000    32.0000 </r>
       <r>    -3.1350     0.0000    32.0000 </r>
       <r>    -2.9526     0.0000    32.0000 </r>
       <r>    -2.7702     0.0000    32.0000 </r>
       <r>    -2.5878     8.4439    32.4965 </r>
       <r>    -2.4054    20.5251    35.2257 </r>
       <r>    -2.2229    29.4717    38.4823 </r>
       <r>    -2.0405    18.8576    43.1900 </r>
       <r>    -1.8581     0.0000    44.0000 </r>
       <r>    -1.6757     0.0000    44.0000 </r>
       <r>    -1.4932     0.0000    44.0000 </r>
       <r>    -1.3108     0.0000    44.0000 </r>
       <r>    -1.1284     0.0000    44.0000 </r>
       <r>    -0.9460     0.0000    44.0000 </r>
       <r>    -0.7636     0.0000    44.0000 </r>
       <r>    -0.5811     0.0000    44.0000 </r>
       <r>    -0.3987     0.0000    44.0000 </r>
       <r>    -0.2163    15.7647    45.0059 </r>
       <r>    -0.0339    17.2474    48.0380 </r>
       <r>     0.1486     6.8602    51.1599 </r>
       <r>     0.3310     6.4258    52.2038 </r>
       <r>     0.5134     6.2860    53.7939 </r>
       <r>     0.6958     2.9272    55.8800 </r>
       <r>     0.8783    18.4320    56.9501 </r>
       <r>     1.0607     3.6798    59.8716 </r>
       <r>     1.2431    12.3855    62.5870 </r>
       <r>     1.4255     4.0213    64.1361 </r>
       <r>     1.6079    14.4960    66.6967 </r>
       <r>     1.7904     8.2700    69.6082 </r>
       <r>     1.9728    21.3978    72.7948 </r>
       <r>     2.1552     7.5653    75.6986 </r>
       <r>     2.3376     0.0000    76.0000 </r>
       <r>     2.5201     0.0000    76.0000 </r>
       <r>     2.7025     0.0000    76.0000 </r>
       <r>     2.8849     0.0000    76.0000 </r>
       <r>     3.0673     0.0000    76.0000 </r>
       <r>     3.2497     0.0000    76.0000 </r>
       <r>     3.4322     0.0000    76.0000 </r>
       <r>     3.6146     0.0000    76.0000 </r>
       <r>     3.7970     0.0000    76.0000 </r>
       <r>     3.9794     0.0000    76.0000 </r>
       <r>     4.1619     0.0000    76.0000 </r>
       <r>     4.3443     0.0000    76.0000 </r>
       <r>     4.5267     0.0000    76.0000 </r>
       <r>     4.7091     0.0000    76.0000 </r>
       <r>     4.8916     0.0000    76.0000 </r>
       <r>     5.0740     2.5840    76.2055 </r>
       <r>     5.2564     3.0567    76.7251 </r>
       <r>     5.4388     4.7989    77.7217 </r>
       <r>     5.6212     5.4284    78.6814 </r>
       <r>     5.8037     3.1923    79.4697 </r>
       <r>     5.9861     1.8866    79.9342 </r>
       <r>     6.1685     1.4027    80.1428 </r>
       <r>     6.3509    11.9348    80.6996 </r>
       <r>     6.5334    16.4533    83.5496 </r>
       <r>     6.7158     9.9275    84.7303 </r>
       <r>     6.8982    11.1852    87.5001 </r>
       <r>     7.0806    15.3760    89.4469 </r>
       <r>     7.2630     3.2610    91.9081 </r>
       <r>     7.4455     0.0000    92.0000 </r>
       <r>     7.6279     0.0000    92.0000 </r>
       <r>     7.8103     0.0000    92.0000 </r>
       <r>     7.9927     0.1183    92.0004 </r>
       <r>     8.1752    10.3726    93.3176 </r>
       <r>     8.3576     0.0000    94.0000 </r>
       <r>     8.5400     9.9612    94.6042 </r>
       <r>     8.7224     2.4546    95.9094 </r>
       <r>     8.9049     0.0000    96.0000 </r>
       <r>     9.0873     0.0000    96.0000 </r>
       <r>     9.2697     0.0000    96.0000 </r>
       <r>     9.4521     0.0000    96.0000 </r>
       <r>     9.6345     0.0000    96.0000 </r>
       <r>     9.8170     0.0000    96.0000 </r>
       <r>     9.9994     0.0000    96.0000 </r>
       <r>    10.1818     0.0000    96.0000 </r>
       <r>    10.3642     0.0000    96.0000 </r>
       <r>    10.5467     0.0000    96.0000 </r>
       <r>    10.7291     0.0000    96.0000 </r>
       <r>    10.9115     0.0000    96.0000 </r>
       <r>    11.0939     0.0000    96.0000 </r>
       <r>    11.2763     0.0000    96.0000 </r>
      </set>
     </set>
    </array>
   </total>
  </dos>
 </calculation>
 <structure name="finalpos" >
  <crystal>
   <varray name="basis" >
    <v>       7.58022417       0.00000000       0.00000000 </v>
    <v>       0.00000000       6.33347261       0.00000000 </v>
    <v>       0.00000000       0.00000000       6.01079077 </v>
   </varray>
   <i name="volume">    288.57290863 </i>
   <varray name="rec_basis" >
    <v>       0.13192222       0.00000000       0.00000000 </v>
    <v>       0.00000000       0.15789126       0.00000000 </v>
    <v>       0.00000000       0.00000000       0.16636746 </v>
   </varray>
  </crystal>
  <varray name="positions" >
   <v>       0.00000000       0.31940437       0.30038139 </v>
   <v>       0.50000000       0.68059563       0.80038139 </v>
   <v>       0.22019414       0.16349021       0.19759142 </v>
   <v>       0.27980586       0.83650979       0.69759142 </v>
   <v>       0.72019414       0.83650979       0.69759142 </v>
   <v>       0.77980586       0.16349021       0.19759142 </v>
   <v>       0.00000000       0.61530063       0.16908566 </v>
   <v>       0.50000000       0.38469937       0.66908566 </v>
   <v>       0.00000000       0.32885646       0.63939773 </v>
   <v>       0.50000000       0.67114354       0.13939773 </v>
   <v>       0.00000000       0.65729698       0.78739097 </v>
   <v>       0.50000000       0.34270302       0.28739097 </v>
   <v>       0.25586098       0.18650270       0.80096402 </v>
   <v>       0.24413902       0.81349730       0.30096402 </v>
   <v>       0.75586098       0.81349730       0.30096402 </v>
   <v>       0.74413902       0.18650270       0.80096402 </v>
  </varray>
 </structure>
</modeling>
