unknown system                          
           1
     7.580224    0.000000    0.000000
     0.000000    6.333473    0.000000
     0.000000    0.000000    6.010791
   P    S    Li
   2   8   6
Direct configuration=     1
   0.00000000  0.31940437  0.30038139
   0.50000000  0.68059563  0.80038139
   0.22019414  0.16349021  0.19759142
   0.27980586  0.83650979  0.69759142
   0.72019414  0.83650979  0.69759142
   0.77980586  0.16349021  0.19759142
   0.00000000  0.61530063  0.16908566
   0.50000000  0.38469937  0.66908566
   0.00000000  0.32885646  0.63939773
   0.50000000  0.67114354  0.13939773
   0.00000000  0.65729698  0.78739097
   0.50000000  0.34270302  0.28739097
   0.25586098  0.18650270  0.80096402
   0.24413902  0.81349730  0.30096402
   0.75586098  0.81349730  0.30096402
   0.74413902  0.18650270  0.80096402
