  16  16   0   0
  0.1733289E+02  0.7276460E-09  0.6481008E-09  0.5880690E-09  0.5000000E-15
  1.000000000000000E-004
  CAR 
 unknown system                          
     11.23310381    -43.44524643  301      2.21117602      1.00000000
    -43.445  0.0000E+00  0.0000E+00
    -43.263  0.0000E+00  0.0000E+00
    -43.081  0.0000E+00  0.0000E+00
    -42.898  0.0000E+00  0.0000E+00
    -42.716  0.0000E+00  0.0000E+00
    -42.534  0.0000E+00  0.0000E+00
    -42.352  0.0000E+00  0.0000E+00
    -42.169  0.0000E+00  0.0000E+00
    -41.987  0.0000E+00  0.0000E+00
    -41.805  0.0000E+00  0.0000E+00
    -41.623  0.0000E+00  0.0000E+00
    -41.440  0.0000E+00  0.0000E+00
    -41.258  0.0000E+00  0.0000E+00
    -41.076  0.0000E+00  0.0000E+00
    -40.894  0.0000E+00  0.4000E-01
    -40.711  0.0000E+00  0.4000E-01
    -40.529  0.0000E+00  0.1200E+00
    -40.347  0.0000E+00  0.1200E+00
    -40.165  0.0000E+00  0.1200E+00
    -39.982  0.0000E+00  0.1200E+00
    -39.800  0.0000E+00  0.1200E+00
    -39.618  0.0000E+00  0.1200E+00
    -39.436  0.0000E+00  0.1200E+00
    -39.253  0.0000E+00  0.1200E+00
    -39.071  0.0000E+00  0.1200E+00
    -38.889  0.0000E+00  0.1200E+00
    -38.706  0.0000E+00  0.1200E+00
    -38.524  0.0000E+00  0.1200E+00
    -38.342  0.0000E+00  0.1200E+00
    -38.160  0.0000E+00  0.1200E+00
    -37.977  0.0000E+00  0.1200E+00
    -37.795  0.0000E+00  0.1200E+00
    -37.613  0.0000E+00  0.1200E+00
    -37.431  0.0000E+00  0.1200E+00
    -37.248  0.0000E+00  0.1200E+00
    -37.066  0.0000E+00  0.1200E+00
    -36.884  0.0000E+00  0.1200E+00
    -36.702  0.0000E+00  0.1200E+00
    -36.519  0.0000E+00  0.1200E+00
    -36.337  0.0000E+00  0.1200E+00
    -36.155  0.0000E+00  0.1200E+00
    -35.973  0.0000E+00  0.1200E+00
    -35.790  0.0000E+00  0.1200E+00
    -35.608  0.0000E+00  0.1200E+00
    -35.426  0.0000E+00  0.1200E+00
    -35.243  0.0000E+00  0.1200E+00
    -35.061  0.0000E+00  0.1200E+00
    -34.879  0.0000E+00  0.1200E+00
    -34.697  0.0000E+00  0.1200E+00
    -34.514  0.0000E+00  0.1200E+00
    -34.332  0.0000E+00  0.1200E+00
    -34.150  0.0000E+00  0.1200E+00
    -33.968  0.0000E+00  0.1200E+00
    -33.785  0.0000E+00  0.1200E+00
    -33.603  0.0000E+00  0.1200E+00
    -33.421  0.0000E+00  0.1200E+00
    -33.239  0.0000E+00  0.1200E+00
    -33.056  0.0000E+00  0.1200E+00
    -32.874  0.0000E+00  0.1200E+00
    -32.692  0.0000E+00  0.1200E+00
    -32.510  0.0000E+00  0.1200E+00
    -32.327  0.0000E+00  0.1200E+00
    -32.145  0.0000E+00  0.1200E+00
    -31.963  0.0000E+00  0.1200E+00
    -31.781  0.0000E+00  0.1200E+00
    -31.598  0.0000E+00  0.1200E+00
    -31.416  0.0000E+00  0.1200E+00
    -31.234  0.0000E+00  0.1200E+00
    -31.051  0.0000E+00  0.1200E+00
    -30.869  0.0000E+00  0.1200E+00
    -30.687  0.0000E+00  0.1200E+00
    -30.505  0.0000E+00  0.1200E+00
    -30.322  0.0000E+00  0.1200E+00
    -30.140  0.0000E+00  0.1200E+00
    -29.958  0.0000E+00  0.1200E+00
    -29.776  0.0000E+00  0.1200E+00
    -29.593  0.0000E+00  0.1200E+00
    -29.411  0.0000E+00  0.1200E+00
    -29.229  0.0000E+00  0.1200E+00
    -29.047  0.0000E+00  0.1200E+00
    -28.864  0.0000E+00  0.1200E+00
    -28.682  0.0000E+00  0.1200E+00
    -28.500  0.0000E+00  0.1200E+00
    -28.318  0.0000E+00  0.1200E+00
    -28.135  0.0000E+00  0.1200E+00
    -27.953  0.0000E+00  0.1200E+00
    -27.771  0.0000E+00  0.1200E+00
    -27.589  0.0000E+00  0.1200E+00
    -27.406  0.0000E+00  0.1200E+00
    -27.224  0.0000E+00  0.1200E+00
    -27.042  0.0000E+00  0.1200E+00
    -26.859  0.0000E+00  0.1200E+00
    -26.677  0.0000E+00  0.1200E+00
    -26.495  0.0000E+00  0.1200E+00
    -26.313  0.0000E+00  0.1200E+00
    -26.130  0.0000E+00  0.1200E+00
    -25.948  0.0000E+00  0.1200E+00
    -25.766  0.0000E+00  0.1200E+00
    -25.584  0.0000E+00  0.1200E+00
    -25.401  0.0000E+00  0.1200E+00
    -25.219  0.0000E+00  0.1200E+00
    -25.037  0.0000E+00  0.1200E+00
    -24.855  0.0000E+00  0.1200E+00
    -24.672  0.0000E+00  0.1200E+00
    -24.490  0.0000E+00  0.1200E+00
    -24.308  0.0000E+00  0.1200E+00
    -24.126  0.0000E+00  0.1200E+00
    -23.943  0.0000E+00  0.1200E+00
    -23.761  0.0000E+00  0.1200E+00
    -23.579  0.0000E+00  0.1200E+00
    -23.397  0.0000E+00  0.1200E+00
    -23.214  0.0000E+00  0.1200E+00
    -23.032  0.0000E+00  0.1200E+00
    -22.850  0.0000E+00  0.1200E+00
    -22.667  0.0000E+00  0.1200E+00
    -22.485  0.0000E+00  0.1200E+00
    -22.303  0.0000E+00  0.1200E+00
    -22.121  0.0000E+00  0.1200E+00
    -21.938  0.0000E+00  0.1200E+00
    -21.756  0.0000E+00  0.1200E+00
    -21.574  0.0000E+00  0.1200E+00
    -21.392  0.0000E+00  0.1200E+00
    -21.209  0.0000E+00  0.1200E+00
    -21.027  0.0000E+00  0.1200E+00
    -20.845  0.0000E+00  0.1200E+00
    -20.663  0.0000E+00  0.1200E+00
    -20.480  0.0000E+00  0.1200E+00
    -20.298  0.0000E+00  0.1200E+00
    -20.116  0.0000E+00  0.1200E+00
    -19.934  0.0000E+00  0.1200E+00
    -19.751  0.0000E+00  0.1200E+00
    -19.569  0.0000E+00  0.1200E+00
    -19.387  0.0000E+00  0.1200E+00
    -19.205  0.0000E+00  0.1200E+00
    -19.022  0.0000E+00  0.1200E+00
    -18.840  0.0000E+00  0.1200E+00
    -18.658  0.0000E+00  0.1200E+00
    -18.475  0.0000E+00  0.1200E+00
    -18.293  0.0000E+00  0.1200E+00
    -18.111  0.0000E+00  0.1200E+00
    -17.929  0.0000E+00  0.1200E+00
    -17.746  0.0000E+00  0.1200E+00
    -17.564  0.0000E+00  0.1200E+00
    -17.382  0.0000E+00  0.1200E+00
    -17.200  0.0000E+00  0.1200E+00
    -17.017  0.0000E+00  0.1200E+00
    -16.835  0.0000E+00  0.1200E+00
    -16.653  0.0000E+00  0.1200E+00
    -16.471  0.0000E+00  0.1200E+00
    -16.288  0.0000E+00  0.1200E+00
    -16.106  0.0000E+00  0.1200E+00
    -15.924  0.0000E+00  0.1200E+00
    -15.742  0.0000E+00  0.1200E+00
    -15.559  0.0000E+00  0.1200E+00
    -15.377  0.0000E+00  0.1200E+00
    -15.195  0.0000E+00  0.1200E+00
    -15.013  0.0000E+00  0.1200E+00
    -14.830  0.0000E+00  0.1200E+00
    -14.648  0.0000E+00  0.1200E+00
    -14.466  0.0000E+00  0.1200E+00
    -14.283  0.0000E+00  0.1200E+00
    -14.101  0.0000E+00  0.1200E+00
    -13.919  0.0000E+00  0.1200E+00
    -13.737  0.0000E+00  0.1200E+00
    -13.554  0.0000E+00  0.1200E+00
    -13.372  0.0000E+00  0.1200E+00
    -13.190  0.0000E+00  0.1200E+00
    -13.008  0.0000E+00  0.1200E+00
    -12.825  0.0000E+00  0.1200E+00
    -12.643  0.0000E+00  0.1200E+00
    -12.461  0.2407E+00  0.1585E+00
    -12.279  0.0000E+00  0.1600E+00
    -12.096  0.0000E+00  0.1600E+00
    -11.914  0.0000E+00  0.1600E+00
    -11.732  0.0000E+00  0.1600E+00
    -11.550  0.0000E+00  0.1600E+00
    -11.367  0.0000E+00  0.1600E+00
    -11.185  0.0000E+00  0.1600E+00
    -11.003  0.0000E+00  0.1600E+00
    -10.820  0.0000E+00  0.1600E+00
    -10.638  0.0000E+00  0.1600E+00
    -10.456  0.0000E+00  0.1600E+00
    -10.274  0.0000E+00  0.1600E+00
    -10.091  0.0000E+00  0.1600E+00
     -9.909  0.0000E+00  0.1600E+00
     -9.727  0.0000E+00  0.1600E+00
     -9.545  0.4427E+00  0.1860E+00
     -9.362  0.4265E+00  0.2562E+00
     -9.180  0.0000E+00  0.2800E+00
     -8.998  0.0000E+00  0.2800E+00
     -8.816  0.0000E+00  0.2800E+00
     -8.633  0.0000E+00  0.2800E+00
     -8.451  0.0000E+00  0.2800E+00
     -8.269  0.0000E+00  0.2800E+00
     -8.087  0.0000E+00  0.2800E+00
     -7.904  0.0000E+00  0.2800E+00
     -7.722  0.0000E+00  0.2800E+00
     -7.540  0.0000E+00  0.2800E+00
     -7.358  0.0000E+00  0.2800E+00
     -7.175  0.0000E+00  0.2800E+00
     -6.993  0.0000E+00  0.2800E+00
     -6.811  0.0000E+00  0.2800E+00
     -6.628  0.0000E+00  0.2800E+00
     -6.446  0.0000E+00  0.2800E+00
     -6.264  0.0000E+00  0.2800E+00
     -6.082  0.0000E+00  0.2800E+00
     -5.899  0.0000E+00  0.2800E+00
     -5.717  0.0000E+00  0.2800E+00
     -5.535  0.0000E+00  0.2800E+00
     -5.353  0.3967E-01  0.2843E+00
     -5.170  0.3697E-01  0.2985E+00
     -4.988  0.0000E+00  0.3200E+00
     -4.806  0.0000E+00  0.3200E+00
     -4.624  0.0000E+00  0.3200E+00
     -4.441  0.0000E+00  0.3200E+00
     -4.259  0.0000E+00  0.3200E+00
     -4.077  0.0000E+00  0.3200E+00
     -3.895  0.0000E+00  0.3200E+00
     -3.712  0.0000E+00  0.3200E+00
     -3.530  0.0000E+00  0.3200E+00
     -3.348  0.0000E+00  0.3200E+00
     -3.166  0.0000E+00  0.3200E+00
     -2.983  0.0000E+00  0.3200E+00
     -2.801  0.0000E+00  0.3200E+00
     -2.619  0.0000E+00  0.3200E+00
     -2.436  0.1983E+00  0.3425E+00
     -2.254  0.1160E+00  0.3729E+00
     -2.072  0.1800E+00  0.4121E+00
     -1.890  0.0000E+00  0.4400E+00
     -1.707  0.0000E+00  0.4400E+00
     -1.525  0.0000E+00  0.4400E+00
     -1.343  0.0000E+00  0.4400E+00
     -1.161  0.0000E+00  0.4400E+00
     -0.978  0.0000E+00  0.4400E+00
     -0.796  0.0000E+00  0.4400E+00
     -0.614  0.0000E+00  0.4400E+00
     -0.432  0.0000E+00  0.4400E+00
     -0.249  0.5208E-01  0.4417E+00
     -0.067  0.8648E-01  0.4722E+00
      0.115  0.1500E+00  0.5011E+00
      0.297  0.0000E+00  0.5200E+00
      0.480  0.9618E-01  0.5332E+00
      0.662  0.5064E-01  0.5510E+00
      0.844  0.1046E+00  0.5623E+00
      1.026  0.1368E+00  0.5909E+00
      1.209  0.1005E+00  0.6167E+00
      1.391  0.8161E-01  0.6370E+00
      1.573  0.1553E+00  0.6555E+00
      1.756  0.1275E+00  0.6797E+00
      1.938  0.1787E+00  0.7184E+00
      2.120  0.2386E+00  0.7498E+00
      2.302  0.0000E+00  0.7600E+00
      2.485  0.0000E+00  0.7600E+00
      2.667  0.0000E+00  0.7600E+00
      2.849  0.0000E+00  0.7600E+00
      3.031  0.0000E+00  0.7600E+00
      3.214  0.0000E+00  0.7600E+00
      3.396  0.0000E+00  0.7600E+00
      3.578  0.0000E+00  0.7600E+00
      3.760  0.0000E+00  0.7600E+00
      3.943  0.0000E+00  0.7600E+00
      4.125  0.0000E+00  0.7600E+00
      4.307  0.0000E+00  0.7600E+00
      4.489  0.0000E+00  0.7600E+00
      4.672  0.0000E+00  0.7600E+00
      4.854  0.0000E+00  0.7600E+00
      5.036  0.0000E+00  0.7600E+00
      5.218  0.2406E-01  0.7649E+00
      5.401  0.3832E-01  0.7705E+00
      5.583  0.4560E-01  0.7810E+00
      5.765  0.3611E-01  0.7898E+00
      5.948  0.2457E-01  0.7974E+00
      6.130  0.1207E-01  0.8008E+00
      6.312  0.3149E-01  0.8051E+00
      6.494  0.1269E+00  0.8188E+00
      6.677  0.9701E-01  0.8427E+00
      6.859  0.1067E+00  0.8610E+00
      7.041  0.1052E+00  0.8849E+00
      7.223  0.8786E-01  0.9081E+00
      7.406  0.0000E+00  0.9200E+00
      7.588  0.0000E+00  0.9200E+00
      7.770  0.0000E+00  0.9200E+00
      7.952  0.0000E+00  0.9200E+00
      8.135  0.1300E-01  0.9207E+00
      8.317  0.5344E-01  0.9333E+00
      8.499  0.6810E-01  0.9432E+00
      8.681  0.2320E-01  0.9586E+00
      8.864  0.0000E+00  0.9600E+00
      9.046  0.0000E+00  0.9600E+00
      9.228  0.0000E+00  0.9600E+00
      9.410  0.0000E+00  0.9600E+00
      9.593  0.0000E+00  0.9600E+00
      9.775  0.0000E+00  0.9600E+00
      9.957  0.0000E+00  0.9600E+00
     10.140  0.0000E+00  0.9600E+00
     10.322  0.0000E+00  0.9600E+00
     10.504  0.0000E+00  0.9600E+00
     10.686  0.0000E+00  0.9600E+00
     10.869  0.0000E+00  0.9600E+00
     11.051  0.0000E+00  0.9600E+00
     11.233  0.0000E+00  0.9600E+00
