       N       E                     dE             d eps       ncg     rms          rms(c)
DAV:   1     0.504600497542E+03    0.50460E+03   -0.28337E+04   768   0.130E+03
DAV:   2    -0.352683393869E+01   -0.50813E+03   -0.48454E+03   912   0.311E+02
DAV:   3    -0.665515103592E+02   -0.63025E+02   -0.62242E+02  1064   0.972E+01
DAV:   4    -0.749547313639E+02   -0.84032E+01   -0.83660E+01  1448   0.335E+01
DAV:   5    -0.758062375532E+02   -0.85151E+00   -0.85132E+00  1112   0.772E+00    0.229E+01
RMM:   6    -0.728385353525E+02    0.29677E+01   -0.96112E+00   777   0.695E+00    0.155E+01
RMM:   7    -0.723368549268E+02    0.50168E+00   -0.29554E+00   799   0.423E+00    0.577E+00
RMM:   8    -0.722522923346E+02    0.84563E-01   -0.33429E-01   869   0.167E+00    0.491E-01
RMM:   9    -0.722422544311E+02    0.10038E-01   -0.31726E-02  1022   0.529E-01    0.291E-01
RMM:  10    -0.722420916653E+02    0.16277E-03   -0.66377E-03  1065   0.243E-01    0.116E-01
RMM:  11    -0.722421907853E+02   -0.99120E-04   -0.20457E-03  1082   0.128E-01    0.503E-02
RMM:  12    -0.722422279660E+02   -0.37181E-04   -0.95499E-04  1076   0.863E-02    0.175E-02
RMM:  13    -0.722422603330E+02   -0.32367E-04   -0.39740E-04   772   0.607E-02    0.726E-03
RMM:  14    -0.722422800717E+02   -0.19739E-04   -0.23898E-04   846   0.526E-02    0.426E-03
RMM:  15    -0.722422855518E+02   -0.54800E-05   -0.81778E-05   618   0.432E-02
   1 F= -.72242286E+02 E0= -.72242286E+02  d E =-.722423E+02
       N       E                     dE             d eps       ncg     rms          rms(c)
DAV:   1    -0.743883903767E+02   -0.21461E+01   -0.32196E+02   768   0.892E+01    0.119E+01
RMM:   2    -0.745083618310E+02   -0.11997E+00   -0.21157E+01   992   0.182E+01    0.558E+00
RMM:   3    -0.744186290466E+02    0.89733E-01   -0.60136E+00  1113   0.726E+00    0.371E+00
RMM:   4    -0.743847147967E+02    0.33914E-01   -0.13578E+00  1094   0.376E+00    0.140E+00
RMM:   5    -0.743985125265E+02   -0.13798E-01   -0.37634E-01  1241   0.209E+00    0.675E-01
RMM:   6    -0.744018672099E+02   -0.33547E-02   -0.82819E-02  1246   0.112E+00    0.345E-01
RMM:   7    -0.744048192407E+02   -0.29520E-02   -0.37113E-02  1300   0.726E-01    0.124E-01
RMM:   8    -0.744063346983E+02   -0.15155E-02   -0.17312E-02  1266   0.494E-01    0.586E-02
RMM:   9    -0.744074045978E+02   -0.10699E-02   -0.11450E-02  1282   0.369E-01    0.250E-02
RMM:  10    -0.744079420326E+02   -0.53743E-03   -0.56320E-03  1198   0.274E-01    0.237E-02
RMM:  11    -0.744083224917E+02   -0.38046E-03   -0.40445E-03  1207   0.219E-01    0.154E-02
RMM:  12    -0.744085338582E+02   -0.21137E-03   -0.22131E-03  1164   0.172E-01    0.111E-02
RMM:  13    -0.744086726505E+02   -0.13879E-03   -0.14797E-03  1148   0.139E-01    0.779E-03
RMM:  14    -0.744087631918E+02   -0.90541E-04   -0.95720E-04  1132   0.114E-01    0.810E-03
RMM:  15    -0.744088137174E+02   -0.50526E-04   -0.54075E-04   982   0.926E-02    0.976E-03
RMM:  16    -0.744088454410E+02   -0.31724E-04   -0.35107E-04   956   0.805E-02    0.162E-02
RMM:  17    -0.744088594323E+02   -0.13991E-04   -0.18630E-04   856   0.711E-02
   2 F= -.74408859E+02 E0= -.74408859E+02  d E =-.216657E+01
       N       E                     dE             d eps       ncg     rms          rms(c)
DAV:   1    -0.746106620665E+02   -0.20182E+00   -0.34732E+01   784   0.284E+01    0.385E+00
RMM:   2    -0.745511852841E+02    0.59477E-01   -0.16618E+00   990   0.555E+00    0.150E+00
RMM:   3    -0.745210440080E+02    0.30141E-01   -0.38578E-01  1097   0.216E+00    0.788E-01
RMM:   4    -0.745192790813E+02    0.17649E-02   -0.89130E-02  1204   0.102E+00    0.449E-01
RMM:   5    -0.745192279646E+02    0.51117E-04   -0.21626E-02  1286   0.572E-01    0.158E-01
RMM:   6    -0.745199858651E+02   -0.75790E-03   -0.11120E-02  1245   0.366E-01    0.799E-02
RMM:   7    -0.745205538830E+02   -0.56802E-03   -0.61677E-03  1275   0.264E-01    0.317E-02
RMM:   8    -0.745208382667E+02   -0.28438E-03   -0.29847E-03  1203   0.190E-01    0.125E-02
RMM:   9    -0.745210045139E+02   -0.16625E-03   -0.17502E-03  1197   0.147E-01    0.101E-02
RMM:  10    -0.745211006572E+02   -0.96143E-04   -0.10151E-03  1104   0.115E-01    0.574E-03
RMM:  11    -0.745211586890E+02   -0.58032E-04   -0.62403E-04  1068   0.941E-02    0.460E-03
RMM:  12    -0.745211920676E+02   -0.33379E-04   -0.36865E-04   931   0.790E-02    0.161E-03
RMM:  13    -0.745212087051E+02   -0.16638E-04   -0.20008E-04   826   0.691E-02    0.155E-03
RMM:  14    -0.745212152308E+02   -0.65257E-05   -0.10121E-04   694   0.638E-02
   3 F= -.74521215E+02 E0= -.74521215E+02  d E =-.227893E+01
       N       E                     dE             d eps       ncg     rms          rms(c)
DAV:   1    -0.748027695303E+02   -0.28156E+00   -0.66042E+01   768   0.381E+01    0.814E+00
RMM:   2    -0.750051330246E+02   -0.20236E+00   -0.32998E+00   949   0.793E+00    0.138E+00
RMM:   3    -0.749526989421E+02    0.52434E-01   -0.30009E-01  1197   0.219E+00    0.111E+00
RMM:   4    -0.749425140590E+02    0.10185E-01   -0.99733E-02  1152   0.102E+00    0.446E-01
RMM:   5    -0.749437877887E+02   -0.12737E-02   -0.28217E-02  1242   0.587E-01    0.233E-01
RMM:   6    -0.749450401423E+02   -0.12524E-02   -0.15268E-02  1248   0.413E-01    0.530E-02
RMM:   7    -0.749457190424E+02   -0.67890E-03   -0.76174E-03  1188   0.303E-01    0.343E-02
RMM:   8    -0.749462417279E+02   -0.52269E-03   -0.55899E-03  1138   0.239E-01    0.187E-02
RMM:   9    -0.749465360424E+02   -0.29431E-03   -0.30427E-03  1100   0.186E-01    0.139E-02
RMM:  10    -0.749467243565E+02   -0.18831E-03   -0.19730E-03  1095   0.148E-01    0.536E-03
RMM:  11    -0.749468428103E+02   -0.11845E-03   -0.12366E-03  1070   0.120E-01    0.517E-03
RMM:  12    -0.749469135258E+02   -0.70716E-04   -0.74458E-04  1021   0.978E-02    0.391E-03
RMM:  13    -0.749469574450E+02   -0.43919E-04   -0.47910E-04   929   0.830E-02    0.157E-03
RMM:  14    -0.749469798438E+02   -0.22399E-04   -0.25467E-04   820   0.716E-02    0.160E-03
RMM:  15    -0.749469923141E+02   -0.12470E-04   -0.16078E-04   784   0.661E-02
   4 F= -.74946992E+02 E0= -.74946992E+02  d E =-.425777E+00
       N       E                     dE             d eps       ncg     rms          rms(c)
DAV:   1    -0.749567161864E+02   -0.97363E-02   -0.42432E+00   864   0.965E+00    0.175E+00
RMM:   2    -0.749696707952E+02   -0.12955E-01   -0.20115E-01   955   0.199E+00    0.436E-01
RMM:   3    -0.749666900907E+02    0.29807E-02   -0.17899E-02  1182   0.559E-01    0.324E-01
RMM:   4    -0.749660404958E+02    0.64959E-03   -0.75478E-03  1109   0.273E-01    0.857E-02
RMM:   5    -0.749661575113E+02   -0.11702E-03   -0.21724E-03  1208   0.162E-01    0.511E-02
RMM:   6    -0.749662825879E+02   -0.12508E-03   -0.14117E-03  1135   0.120E-01    0.147E-02
RMM:   7    -0.749663398697E+02   -0.57282E-04   -0.61910E-04  1035   0.909E-02    0.735E-03
RMM:   8    -0.749663822169E+02   -0.42347E-04   -0.46028E-04   985   0.750E-02    0.732E-03
RMM:   9    -0.749663958761E+02   -0.13659E-04   -0.15966E-04   770   0.613E-02
   5 F= -.74966396E+02 E0= -.74966396E+02  d E =-.445181E+00
       N       E                     dE             d eps       ncg     rms          rms(c)
DAV:   1    -0.752395564731E+02   -0.27317E+00   -0.36438E+01   768   0.291E+01    0.342E+00
RMM:   2    -0.752937431946E+02   -0.54187E-01   -0.12892E+00   964   0.501E+00    0.105E+00
RMM:   3    -0.752793168038E+02    0.14426E-01   -0.16656E-01  1206   0.158E+00    0.857E-01
RMM:   4    -0.752750791953E+02    0.42376E-02   -0.44955E-02  1183   0.716E-01    0.330E-01
RMM:   5    -0.752757318004E+02   -0.65261E-03   -0.16205E-02  1236   0.447E-01    0.130E-01
RMM:   6    -0.752764213345E+02   -0.68953E-03   -0.88578E-03  1263   0.319E-01    0.392E-02
RMM:   7    -0.752768452317E+02   -0.42390E-03   -0.45875E-03  1170   0.233E-01    0.208E-02
RMM:   8    -0.752771409379E+02   -0.29571E-03   -0.31055E-03  1105   0.181E-01    0.955E-03
RMM:   9    -0.752773175374E+02   -0.17660E-03   -0.18165E-03  1117   0.143E-01    0.809E-03
RMM:  10    -0.752774237331E+02   -0.10620E-03   -0.11038E-03  1036   0.113E-01    0.302E-03
RMM:  11    -0.752774894099E+02   -0.65677E-04   -0.69000E-04   975   0.925E-02    0.258E-03
RMM:  12    -0.752775263838E+02   -0.36974E-04   -0.40417E-04   947   0.778E-02    0.119E-03
RMM:  13    -0.752775476714E+02   -0.21288E-04   -0.24210E-04   814   0.677E-02    0.811E-04
RMM:  14    -0.752775563764E+02   -0.87049E-05   -0.11895E-04   738   0.614E-02
   6 F= -.75277556E+02 E0= -.75277556E+02  d E =-.311161E+00
       N       E                     dE             d eps       ncg     rms          rms(c)
DAV:   1    -0.749625051181E+02    0.31504E+00   -0.31730E+02   768   0.873E+01    0.185E+01
RMM:   2    -0.756973599354E+02   -0.73485E+00   -0.15287E+01   956   0.161E+01    0.473E+00
RMM:   3    -0.757670926387E+02   -0.69733E-01   -0.33736E+00  1201   0.568E+00    0.496E+00
RMM:   4    -0.757592880341E+02    0.78046E-02   -0.80438E-01  1165   0.281E+00    0.188E+00
RMM:   5    -0.757630932741E+02   -0.38052E-02   -0.15830E-01  1231   0.149E+00    0.545E-01
RMM:   6    -0.757678139957E+02   -0.47207E-02   -0.74501E-02  1268   0.984E-01    0.150E-01
RMM:   7    -0.757710182707E+02   -0.32043E-02   -0.35303E-02  1239   0.642E-01    0.762E-02
RMM:   8    -0.757728435442E+02   -0.18253E-02   -0.18612E-02  1299   0.452E-01    0.308E-02
RMM:   9    -0.757737749922E+02   -0.93145E-03   -0.94146E-03  1235   0.321E-01    0.226E-02
RMM:  10    -0.757743543023E+02   -0.57931E-03   -0.59845E-03  1212   0.251E-01    0.164E-02
RMM:  11    -0.757746839980E+02   -0.32970E-03   -0.34070E-03  1172   0.194E-01    0.929E-03
RMM:  12    -0.757748917433E+02   -0.20775E-03   -0.21636E-03  1153   0.155E-01    0.859E-03
RMM:  13    -0.757750194198E+02   -0.12768E-03   -0.13375E-03  1085   0.125E-01    0.327E-03
RMM:  14    -0.757750994258E+02   -0.80006E-04   -0.84072E-04  1014   0.103E-01    0.170E-03
RMM:  15    -0.757751461439E+02   -0.46718E-04   -0.50179E-04   906   0.867E-02    0.185E-03
RMM:  16    -0.757751744660E+02   -0.28322E-04   -0.31999E-04   866   0.764E-02    0.212E-03
RMM:  17    -0.757751906471E+02   -0.16181E-04   -0.19605E-04   824   0.692E-02
   7 F= -.75775191E+02 E0= -.75775191E+02  d E =-.808795E+00
       N       E                     dE             d eps       ncg     rms          rms(c)
DAV:   1    -0.758532726770E+02   -0.78098E-01   -0.50790E+01   768   0.320E+01    0.585E+00
RMM:   2    -0.760415983423E+02   -0.18833E+00   -0.25774E+00   956   0.683E+00    0.229E+00
RMM:   3    -0.760247766528E+02    0.16822E-01   -0.33763E-01  1217   0.205E+00    0.220E+00
RMM:   4    -0.760120301055E+02    0.12747E-01   -0.86337E-02  1057   0.980E-01    0.491E-01
RMM:   5    -0.760125926282E+02   -0.56252E-03   -0.22580E-02  1214   0.533E-01    0.132E-01
RMM:   6    -0.760129374396E+02   -0.34481E-03   -0.10163E-02  1219   0.340E-01    0.506E-02
RMM:   7    -0.760133422856E+02   -0.40485E-03   -0.48298E-03  1185   0.239E-01    0.417E-02
RMM:   8    -0.760136062431E+02   -0.26396E-03   -0.29103E-03  1154   0.182E-01    0.225E-02
RMM:   9    -0.760137671506E+02   -0.16091E-03   -0.17697E-03  1075   0.140E-01    0.781E-03
RMM:  10    -0.760138907203E+02   -0.12357E-03   -0.12714E-03  1085   0.111E-01    0.710E-03
RMM:  11    -0.760139448265E+02   -0.54106E-04   -0.53775E-04   957   0.825E-02    0.462E-03
RMM:  12    -0.760139730268E+02   -0.28200E-04   -0.30975E-04   902   0.688E-02    0.438E-03
RMM:  13    -0.760139869006E+02   -0.13874E-04   -0.16381E-04   750   0.599E-02
   8 F= -.76013987E+02 E0= -.76013987E+02  d E =-.238796E+00
       N       E                     dE             d eps       ncg     rms          rms(c)
DAV:   1    -0.760141785683E+02   -0.20554E-03   -0.91863E-02   928   0.135E+00    0.228E-01
RMM:   2    -0.760144855410E+02   -0.30697E-03   -0.43114E-03   964   0.279E-01    0.748E-02
RMM:   3    -0.760144357755E+02    0.49765E-04   -0.48829E-04  1177   0.941E-02    0.620E-02
RMM:   4    -0.760144275377E+02    0.82378E-05   -0.20975E-04  1007   0.510E-02    0.121E-02
RMM:   5    -0.760144235011E+02    0.40366E-05    0.13994E-05   467   0.361E-02
   9 F= -.76014424E+02 E0= -.76014424E+02  d E =-.239233E+00
       N       E                     dE             d eps       ncg     rms          rms(c)
DAV:   1    -0.761634545522E+02   -0.14903E+00   -0.32235E+01   768   0.250E+01    0.295E+00
RMM:   2    -0.761731619994E+02   -0.97074E-02   -0.11610E+00   968   0.445E+00    0.104E+00
RMM:   3    -0.761650466868E+02    0.81153E-02   -0.21507E-01  1149   0.153E+00    0.750E-01
RMM:   4    -0.761628742114E+02    0.21725E-02   -0.46438E-02  1214   0.713E-01    0.404E-01
RMM:   5    -0.761632988161E+02   -0.42460E-03   -0.14842E-02  1211   0.434E-01    0.122E-01
RMM:   6    -0.761640343847E+02   -0.73557E-03   -0.85004E-03  1207   0.301E-01    0.394E-02
RMM:   7    -0.761644363714E+02   -0.40199E-03   -0.40712E-03  1166   0.208E-01    0.164E-02
RMM:   8    -0.761646372229E+02   -0.20085E-03   -0.20231E-03  1112   0.151E-01    0.826E-03
RMM:   9    -0.761647531907E+02   -0.11597E-03   -0.12005E-03  1114   0.117E-01    0.636E-03
RMM:  10    -0.761648175933E+02   -0.64403E-04   -0.67508E-04  1015   0.918E-02    0.303E-03
RMM:  11    -0.761648548901E+02   -0.37297E-04   -0.39740E-04   944   0.749E-02    0.164E-03
RMM:  12    -0.761648718457E+02   -0.16956E-04   -0.19245E-04   813   0.629E-02
  10 F= -.76164872E+02 E0= -.76164872E+02  d E =-.150448E+00
       N       E                     dE             d eps       ncg     rms          rms(c)
DAV:   1    -0.756093439459E+02    0.55551E+00   -0.27462E+02   768   0.753E+01    0.127E+01
RMM:   2    -0.760108218689E+02   -0.40148E+00   -0.15073E+01   963   0.143E+01    0.351E+00
RMM:   3    -0.761786687029E+02   -0.16785E+00   -0.44795E+00  1111   0.517E+00    0.325E+00
RMM:   4    -0.762572562075E+02   -0.78588E-01   -0.14481E+00  1166   0.275E+00    0.162E+00
RMM:   5    -0.762609882617E+02   -0.37321E-02   -0.19769E-01  1241   0.148E+00    0.511E-01
RMM:   6    -0.762705504797E+02   -0.95622E-02   -0.10947E-01  1267   0.974E-01    0.144E-01
RMM:   7    -0.762734257353E+02   -0.28753E-02   -0.31201E-02  1262   0.600E-01    0.546E-02
RMM:   8    -0.762747532705E+02   -0.13275E-02   -0.13639E-02  1241   0.405E-01    0.301E-02
RMM:   9    -0.762754792954E+02   -0.72602E-03   -0.76066E-03  1216   0.293E-01    0.169E-02
RMM:  10    -0.762758654668E+02   -0.38617E-03   -0.40515E-03  1217   0.218E-01    0.139E-02
RMM:  11    -0.762761089281E+02   -0.24346E-03   -0.25428E-03  1153   0.166E-01    0.572E-03
RMM:  12    -0.762762372691E+02   -0.12834E-03   -0.13385E-03  1106   0.127E-01    0.348E-03
RMM:  13    -0.762763163926E+02   -0.79124E-04   -0.83277E-04  1054   0.101E-01    0.410E-03
RMM:  14    -0.762763550903E+02   -0.38698E-04   -0.41530E-04   936   0.810E-02    0.175E-03
RMM:  15    -0.762763775406E+02   -0.22450E-04   -0.25509E-04   890   0.694E-02    0.336E-03
RMM:  16    -0.762763849743E+02   -0.74337E-05   -0.10431E-04   748   0.614E-02
  11 F= -.76276385E+02 E0= -.76276385E+02  d E =-.261961E+00
       N       E                     dE             d eps       ncg     rms          rms(c)
DAV:   1    -0.762925317601E+02   -0.16154E-01   -0.25370E+01   768   0.225E+01    0.211E+00
RMM:   2    -0.763070115966E+02   -0.14480E-01   -0.97621E-01   973   0.409E+00    0.985E-01
RMM:   3    -0.762992713257E+02    0.77403E-02   -0.19955E-01  1152   0.149E+00    0.596E-01
RMM:   4    -0.762972854981E+02    0.19858E-02   -0.38932E-02  1180   0.672E-01    0.323E-01
RMM:   5    -0.762973347909E+02   -0.49293E-04   -0.11415E-02  1246   0.403E-01    0.115E-01
RMM:   6    -0.762979105727E+02   -0.57578E-03   -0.66416E-03  1243   0.267E-01    0.461E-02
RMM:   7    -0.762982003500E+02   -0.28978E-03   -0.29328E-03  1151   0.182E-01    0.122E-02
RMM:   8    -0.762983472492E+02   -0.14690E-03   -0.14918E-03  1134   0.132E-01    0.847E-03
RMM:   9    -0.762984296624E+02   -0.82413E-04   -0.85956E-04  1081   0.101E-01    0.431E-03
RMM:  10    -0.762984709381E+02   -0.41276E-04   -0.43614E-04   989   0.785E-02    0.324E-03
RMM:  11    -0.762984893603E+02   -0.18422E-04   -0.21106E-04   820   0.654E-02    0.102E-03
RMM:  12    -0.762984952111E+02   -0.58509E-05   -0.89467E-05   728   0.582E-02
  12 F= -.76298495E+02 E0= -.76298495E+02  d E =-.284072E+00
       N       E                     dE             d eps       ncg     rms          rms(c)
DAV:   1    -0.762629752209E+02    0.35514E-01   -0.46664E+01   768   0.316E+01    0.338E+00
RMM:   2    -0.763732641561E+02   -0.11029E+00   -0.16030E+00   984   0.505E+00    0.109E+00
RMM:   3    -0.763910875988E+02   -0.17823E-01   -0.36537E-01  1205   0.179E+00    0.584E-01
RMM:   4    -0.763926892412E+02   -0.16016E-02   -0.76143E-02  1201   0.888E-01    0.195E-01
RMM:   5    -0.763945270241E+02   -0.18378E-02   -0.26989E-02  1271   0.546E-01    0.902E-02
RMM:   6    -0.763956447356E+02   -0.11177E-02   -0.12514E-02  1243   0.359E-01    0.378E-02
RMM:   7    -0.763961226913E+02   -0.47796E-03   -0.49799E-03  1178   0.239E-01    0.171E-02
RMM:   8    -0.763964350685E+02   -0.31238E-03   -0.32329E-03  1158   0.181E-01    0.147E-02
RMM:   9    -0.763965816070E+02   -0.14654E-03   -0.15027E-03  1118   0.131E-01    0.143E-02
RMM:  10    -0.763966797051E+02   -0.98098E-04   -0.99960E-04  1074   0.103E-01    0.235E-02
RMM:  11    -0.763967131730E+02   -0.33468E-04   -0.43566E-04  1008   0.809E-02    0.508E-03
RMM:  12    -0.763967403770E+02   -0.27204E-04   -0.30446E-04   864   0.677E-02    0.616E-03
RMM:  13    -0.763967461367E+02   -0.57597E-05   -0.81633E-05   673   0.574E-02
  13 F= -.76396746E+02 E0= -.76396746E+02  d E =-.982509E-01
       N       E                     dE             d eps       ncg     rms          rms(c)
DAV:   1    -0.763961918641E+02    0.54851E-03   -0.94172E-01   864   0.447E+00    0.441E-01
RMM:   2    -0.763980443030E+02   -0.18524E-02   -0.26599E-02   995   0.709E-01    0.168E-01
RMM:   3    -0.763980594917E+02   -0.15189E-04   -0.38313E-03  1252   0.250E-01    0.103E-01
RMM:   4    -0.763980588647E+02    0.62707E-06   -0.12968E-03  1171   0.125E-01    0.221E-02
RMM:   5    -0.763981146842E+02   -0.55820E-04   -0.67606E-04  1054   0.874E-02    0.128E-02
RMM:   6    -0.763981399210E+02   -0.25237E-04   -0.27715E-04   882   0.665E-02    0.563E-03
RMM:   7    -0.763981448098E+02   -0.48888E-05   -0.72555E-05   682   0.542E-02
  14 F= -.76398145E+02 E0= -.76398145E+02  d E =-.996496E-01
       N       E                     dE             d eps       ncg     rms          rms(c)
DAV:   1    -0.764228809637E+02   -0.24741E-01   -0.24022E+01   768   0.224E+01    0.116E+00
RMM:   2    -0.764701285886E+02   -0.47248E-01   -0.64934E-01  1007   0.316E+00    0.478E-01
RMM:   3    -0.764800704164E+02   -0.99418E-02   -0.15706E-01  1212   0.120E+00    0.253E-01
RMM:   4    -0.764812591022E+02   -0.11887E-02   -0.27656E-02  1277   0.574E-01    0.182E-01
RMM:   5    -0.764817574045E+02   -0.49830E-03   -0.10048E-02  1252   0.360E-01    0.475E-02
RMM:   6    -0.764822251497E+02   -0.46775E-03   -0.48501E-03  1248   0.247E-01    0.330E-02
RMM:   7    -0.764824777281E+02   -0.25258E-03   -0.25948E-03  1177   0.174E-01    0.118E-02
RMM:   8    -0.764826124103E+02   -0.13468E-03   -0.13836E-03  1170   0.130E-01    0.683E-03
RMM:   9    -0.764826858822E+02   -0.73472E-04   -0.76496E-04  1087   0.985E-02    0.335E-03
RMM:  10    -0.764827251997E+02   -0.39317E-04   -0.41693E-04   996   0.782E-02    0.199E-03
RMM:  11    -0.764827409973E+02   -0.15798E-04   -0.18084E-04   812   0.640E-02
  15 F= -.76482741E+02 E0= -.76482741E+02  d E =-.845962E-01
       N       E                     dE             d eps       ncg     rms          rms(c)
DAV:   1    -0.754653805338E+02    0.10173E+01   -0.18836E+02   768   0.635E+01    0.385E+00
RMM:   2    -0.761792602338E+02   -0.71388E+00   -0.93246E+00  1003   0.103E+01    0.164E+00
RMM:   3    -0.765182974133E+02   -0.33904E+00   -0.38663E+00  1213   0.434E+00    0.855E-01
RMM:   4    -0.766189775839E+02   -0.10068E+00   -0.11372E+00  1273   0.230E+00    0.733E-01
RMM:   5    -0.766239864051E+02   -0.50088E-02   -0.15283E-01  1300   0.127E+00    0.451E-01
RMM:   6    -0.766257237029E+02   -0.17373E-02   -0.62457E-02  1229   0.858E-01    0.802E-02
RMM:   7    -0.766279978581E+02   -0.22742E-02   -0.24905E-02  1250   0.530E-01    0.740E-02
RMM:   8    -0.766291067977E+02   -0.11089E-02   -0.11023E-02  1241   0.366E-01    0.580E-02
RMM:   9    -0.766295776404E+02   -0.47084E-03   -0.54016E-03  1221   0.256E-01    0.160E-02
RMM:  10    -0.766298634976E+02   -0.28586E-03   -0.29798E-03  1219   0.190E-01    0.185E-02
RMM:  11    -0.766300209305E+02   -0.15743E-03   -0.16690E-03  1165   0.141E-01    0.160E-02
RMM:  12    -0.766301100648E+02   -0.89134E-04   -0.95132E-04  1113   0.109E-01    0.107E-02
RMM:  13    -0.766301566695E+02   -0.46605E-04   -0.50857E-04  1057   0.858E-02    0.319E-03
RMM:  14    -0.766301807313E+02   -0.24062E-04   -0.26728E-04   875   0.702E-02    0.171E-03
RMM:  15    -0.766301877027E+02   -0.69714E-05   -0.99810E-05   733   0.609E-02
  16 F= -.76630188E+02 E0= -.76630188E+02  d E =-.232043E+00
       N       E                     dE             d eps       ncg     rms          rms(c)
DAV:   1    -0.765263418443E+02    0.10384E+00   -0.38889E+01   768   0.283E+01    0.150E+00
RMM:   2    -0.766165709635E+02   -0.90229E-01   -0.12085E+00  1005   0.418E+00    0.624E-01
RMM:   3    -0.766394805528E+02   -0.22910E-01   -0.32568E-01  1216   0.162E+00    0.336E-01
RMM:   4    -0.766423536576E+02   -0.28731E-02   -0.55809E-02  1288   0.777E-01    0.246E-01
RMM:   5    -0.766430436541E+02   -0.69000E-03   -0.17155E-02  1251   0.476E-01    0.614E-02
RMM:   6    -0.766438703968E+02   -0.82674E-03   -0.85903E-03  1274   0.323E-01    0.461E-02
RMM:   7    -0.766442803083E+02   -0.40991E-03   -0.42308E-03  1203   0.222E-01    0.188E-02
RMM:   8    -0.766444963834E+02   -0.21608E-03   -0.22303E-03  1209   0.162E-01    0.733E-03
RMM:   9    -0.766446118573E+02   -0.11547E-03   -0.11991E-03  1133   0.119E-01    0.603E-03
RMM:  10    -0.766446719904E+02   -0.60133E-04   -0.63387E-04  1060   0.911E-02    0.364E-03
RMM:  11    -0.766447011044E+02   -0.29114E-04   -0.31791E-04   961   0.721E-02    0.337E-03
RMM:  12    -0.766447095053E+02   -0.84010E-05   -0.11117E-04   728   0.607E-02
  17 F= -.76644710E+02 E0= -.76644710E+02  d E =-.246565E+00
       N       E                     dE             d eps       ncg     rms          rms(c)
DAV:   1    -0.766623975371E+02   -0.17696E-01   -0.17084E+01   768   0.186E+01    0.158E+00
RMM:   2    -0.766988205307E+02   -0.36423E-01   -0.53978E-01   992   0.304E+00    0.804E-01
RMM:   3    -0.767034297363E+02   -0.46092E-02   -0.11370E-01  1237   0.111E+00    0.569E-01
RMM:   4    -0.767029022432E+02    0.52749E-03   -0.24704E-02  1201   0.541E-01    0.169E-01
RMM:   5    -0.767034463337E+02   -0.54409E-03   -0.88263E-03  1275   0.324E-01    0.636E-02
RMM:   6    -0.767038075023E+02   -0.36117E-03   -0.42436E-03  1215   0.217E-01    0.244E-02
RMM:   7    -0.767039949599E+02   -0.18746E-03   -0.20845E-03  1157   0.152E-01    0.125E-02
RMM:   8    -0.767041185405E+02   -0.12358E-03   -0.13082E-03  1144   0.114E-01    0.698E-03
RMM:   9    -0.767041732590E+02   -0.54719E-04   -0.56941E-04  1003   0.823E-02    0.378E-03
RMM:  10    -0.767041996613E+02   -0.26402E-04   -0.29323E-04   870   0.654E-02    0.175E-03
RMM:  11    -0.767042079073E+02   -0.82460E-05   -0.10873E-04   695   0.554E-02
  18 F= -.76704208E+02 E0= -.76704208E+02  d E =-.594984E-01
       N       E                     dE             d eps       ncg     rms          rms(c)
DAV:   1    -0.766868151457E+02    0.17385E-01   -0.14915E+01   768   0.174E+01    0.144E+00
RMM:   2    -0.767180593703E+02   -0.31244E-01   -0.46412E-01   992   0.283E+00    0.730E-01
RMM:   3    -0.767217880901E+02   -0.37287E-02   -0.95942E-02  1239   0.104E+00    0.507E-01
RMM:   4    -0.767214042526E+02    0.38384E-03   -0.21619E-02  1207   0.509E-01    0.154E-01
RMM:   5    -0.767219362540E+02   -0.53200E-03   -0.82095E-03  1277   0.308E-01    0.592E-02
RMM:   6    -0.767222699399E+02   -0.33369E-03   -0.38919E-03  1205   0.207E-01    0.227E-02
RMM:   7    -0.767224403734E+02   -0.17043E-03   -0.19023E-03  1148   0.145E-01    0.113E-02
RMM:   8    -0.767225521583E+02   -0.11178E-03   -0.11879E-03  1140   0.108E-01    0.680E-03
RMM:   9    -0.767226006019E+02   -0.48444E-04   -0.50556E-04   986   0.781E-02    0.355E-03
RMM:  10    -0.767226201289E+02   -0.19527E-04   -0.22431E-04   794   0.625E-02    0.161E-03
RMM:  11    -0.767226250534E+02   -0.49245E-05   -0.80950E-05   669   0.550E-02
  19 F= -.76722625E+02 E0= -.76722625E+02  d E =-.779155E-01
       N       E                     dE             d eps       ncg     rms          rms(c)
DAV:   1    -0.767485178739E+02   -0.25898E-01   -0.44981E+00   768   0.993E+00    0.564E-01
RMM:   2    -0.767564325083E+02   -0.79146E-02   -0.10693E-01  1002   0.145E+00    0.208E-01
RMM:   3    -0.767571454304E+02   -0.71292E-03   -0.16645E-02  1222   0.517E-01    0.142E-01
RMM:   4    -0.767572251188E+02   -0.79688E-04   -0.56214E-03  1214   0.262E-01    0.544E-02
RMM:   5    -0.767574511572E+02   -0.22604E-03   -0.27952E-03  1236   0.175E-01    0.277E-02
RMM:   6    -0.767575676872E+02   -0.11653E-03   -0.13013E-03  1179   0.122E-01    0.800E-03
RMM:   7    -0.767576234681E+02   -0.55781E-04   -0.63199E-04  1086   0.891E-02    0.484E-03
RMM:   8    -0.767576560971E+02   -0.32629E-04   -0.35871E-04   924   0.698E-02    0.373E-03
RMM:   9    -0.767576623248E+02   -0.62277E-05   -0.86782E-05   692   0.570E-02
  20 F= -.76757662E+02 E0= -.76757662E+02  d E =-.350373E-01
       N       E                     dE             d eps       ncg     rms          rms(c)
DAV:   1    -0.767437350687E+02    0.13921E-01   -0.40060E+01   768   0.299E+01    0.184E+00
RMM:   2    -0.768310328706E+02   -0.87298E-01   -0.11660E+00  1001   0.446E+00    0.630E-01
RMM:   3    -0.768494599692E+02   -0.18427E-01   -0.26726E-01  1247   0.165E+00    0.460E-01
RMM:   4    -0.768510443579E+02   -0.15844E-02   -0.60398E-02  1255   0.819E-01    0.214E-01
RMM:   5    -0.768525684219E+02   -0.15241E-02   -0.22707E-02  1254   0.515E-01    0.789E-02
RMM:   6    -0.768535326838E+02   -0.96426E-03   -0.11104E-02  1290   0.356E-01    0.277E-02
RMM:   7    -0.768540395082E+02   -0.50682E-03   -0.54631E-03  1216   0.245E-01    0.139E-02
RMM:   8    -0.768543317996E+02   -0.29229E-03   -0.30964E-03  1191   0.179E-01    0.709E-03
RMM:   9    -0.768544776234E+02   -0.14582E-03   -0.15363E-03  1170   0.130E-01    0.581E-03
RMM:  10    -0.768545584031E+02   -0.80780E-04   -0.86663E-04  1087   0.978E-02    0.258E-03
RMM:  11    -0.768545961229E+02   -0.37720E-04   -0.40992E-04   949   0.754E-02    0.168E-03
RMM:  12    -0.768546095081E+02   -0.13385E-04   -0.16302E-04   733   0.621E-02
  21 F= -.76854610E+02 E0= -.76854610E+02  d E =-.131984E+00
       N       E                     dE             d eps       ncg     rms          rms(c)
DAV:   1    -0.762996831793E+02    0.55491E+00   -0.15415E+02   768   0.599E+01    0.428E+00
RMM:   2    -0.767762686294E+02   -0.47659E+00   -0.63049E+00   997   0.941E+00    0.134E+00
RMM:   3    -0.769597004134E+02   -0.18343E+00   -0.21814E+00  1245   0.374E+00    0.105E+00
RMM:   4    -0.769947008427E+02   -0.35000E-01   -0.53038E-01  1268   0.196E+00    0.591E-01
RMM:   5    -0.769985763778E+02   -0.38755E-02   -0.99932E-02  1244   0.111E+00    0.200E-01
RMM:   6    -0.770038349245E+02   -0.52585E-02   -0.59165E-02  1302   0.762E-01    0.749E-02
RMM:   7    -0.770055525833E+02   -0.17177E-02   -0.18736E-02  1260   0.454E-01    0.307E-02
RMM:   8    -0.770063025728E+02   -0.74999E-03   -0.78919E-03  1279   0.293E-01    0.121E-02
RMM:   9    -0.770066712472E+02   -0.36867E-03   -0.39269E-03  1228   0.199E-01    0.760E-03
RMM:  10    -0.770068423248E+02   -0.17108E-03   -0.18078E-03  1204   0.139E-01    0.595E-03
RMM:  11    -0.770069259822E+02   -0.83657E-04   -0.88864E-04  1088   0.988E-02    0.393E-03
RMM:  12    -0.770069578444E+02   -0.31862E-04   -0.35181E-04   882   0.744E-02    0.336E-03
RMM:  13    -0.770069703049E+02   -0.12460E-04   -0.16097E-04   759   0.630E-02
  22 F= -.77006970E+02 E0= -.77006970E+02  d E =-.284345E+00
       N       E                     dE             d eps       ncg     rms          rms(c)
DAV:   1    -0.732084820658E+02    0.37985E+01   -0.54536E+02   768   0.117E+02    0.112E+01
RMM:   2    -0.755107137701E+02   -0.23022E+01   -0.31042E+01   990   0.200E+01    0.315E+00
RMM:   3    -0.767195602631E+02   -0.12088E+01   -0.13337E+01  1265   0.799E+00    0.285E+00
RMM:   4    -0.770746999883E+02   -0.35514E+00   -0.41839E+00  1288   0.448E+00    0.163E+00
RMM:   5    -0.770779101414E+02   -0.32102E-02   -0.43392E-01  1284   0.217E+00    0.792E-01
RMM:   6    -0.770852432676E+02   -0.73331E-02   -0.16120E-01  1262   0.136E+00    0.163E-01
RMM:   7    -0.770898236543E+02   -0.45804E-02   -0.59491E-02  1303   0.767E-01    0.882E-02
RMM:   8    -0.770917488923E+02   -0.19252E-02   -0.22052E-02  1313   0.472E-01    0.645E-02
RMM:   9    -0.770924890103E+02   -0.74012E-03   -0.83015E-03  1295   0.292E-01    0.384E-02
RMM:  10    -0.770928050051E+02   -0.31599E-03   -0.33122E-03  1248   0.184E-01    0.364E-02
RMM:  11    -0.770929103892E+02   -0.10538E-03   -0.14540E-03  1160   0.118E-01    0.211E-02
RMM:  12    -0.770929535164E+02   -0.43127E-04   -0.60088E-04   957   0.838E-02    0.760E-03
RMM:  13    -0.770929730460E+02   -0.19530E-04   -0.20090E-04   742   0.657E-02    0.123E-02
RMM:  14    -0.770929758273E+02   -0.27812E-05   -0.10146E-04   691   0.583E-02
  23 F= -.77092976E+02 E0= -.77092976E+02  d E =-.370351E+00
       N       E                     dE             d eps       ncg     rms          rms(c)
DAV:   1    -0.769107856920E+02    0.18219E+00   -0.61280E+01   768   0.388E+01    0.190E+00
RMM:   2    -0.770611518919E+02   -0.15037E+00   -0.19474E+00  1002   0.564E+00    0.785E-01
RMM:   3    -0.770989438643E+02   -0.37792E-01   -0.51797E-01  1246   0.214E+00    0.543E-01
RMM:   4    -0.771024755645E+02   -0.35317E-02   -0.10984E-01  1259   0.104E+00    0.269E-01
RMM:   5    -0.771040892779E+02   -0.16137E-02   -0.31532E-02  1253   0.593E-01    0.108E-01
RMM:   6    -0.771052559120E+02   -0.11666E-02   -0.14125E-02  1305   0.376E-01    0.505E-02
RMM:   7    -0.771057143410E+02   -0.45843E-03   -0.54208E-03  1244   0.229E-01    0.198E-02
RMM:   8    -0.771059350853E+02   -0.22074E-03   -0.24342E-03  1213   0.147E-01    0.878E-03
RMM:   9    -0.771060168359E+02   -0.81751E-04   -0.91060E-04  1127   0.945E-02    0.608E-03
RMM:  10    -0.771060433473E+02   -0.26511E-04   -0.31266E-04   836   0.668E-02    0.294E-03
RMM:  11    -0.771060472294E+02   -0.38821E-05   -0.77760E-05   651   0.559E-02
  24 F= -.77106047E+02 E0= -.77106047E+02  d E =-.383422E+00
       N       E                     dE             d eps       ncg     rms          rms(c)
DAV:   1    -0.770471476174E+02    0.58896E-01   -0.45991E+01   768   0.347E+01    0.168E+00
RMM:   2    -0.771674406059E+02   -0.12029E+00   -0.13384E+00  1015   0.507E+00    0.491E-01
RMM:   3    -0.771882581229E+02   -0.20818E-01   -0.26787E-01  1269   0.179E+00    0.427E-01
RMM:   4    -0.771904846134E+02   -0.22265E-02   -0.65231E-02  1270   0.839E-01    0.229E-01
RMM:   5    -0.771919869572E+02   -0.15023E-02   -0.22004E-02  1260   0.478E-01    0.101E-01
RMM:   6    -0.771927876977E+02   -0.80074E-03   -0.93497E-03  1307   0.301E-01    0.260E-02
RMM:   7    -0.771930924464E+02   -0.30475E-03   -0.33541E-03  1249   0.176E-01    0.145E-02
RMM:   8    -0.771931985438E+02   -0.10610E-03   -0.11692E-03  1183   0.109E-01    0.621E-03
RMM:   9    -0.771932305639E+02   -0.32020E-04   -0.36686E-04   889   0.712E-02    0.222E-03
RMM:  10    -0.771932350060E+02   -0.44421E-05   -0.79569E-05   662   0.572E-02
  25 F= -.77193235E+02 E0= -.77193235E+02  d E =-.871878E-01
       N       E                     dE             d eps       ncg     rms          rms(c)
DAV:   1    -0.770748506037E+02    0.11838E+00   -0.44902E+01   768   0.343E+01    0.164E+00
RMM:   2    -0.771946612967E+02   -0.11981E+00   -0.13298E+00  1021   0.509E+00    0.492E-01
RMM:   3    -0.772159419234E+02   -0.21281E-01   -0.26634E-01  1271   0.181E+00    0.434E-01
RMM:   4    -0.772184552998E+02   -0.25134E-02   -0.68356E-02  1274   0.858E-01    0.230E-01
RMM:   5    -0.772201658186E+02   -0.17105E-02   -0.23693E-02  1264   0.490E-01    0.102E-01
RMM:   6    -0.772209834192E+02   -0.81760E-03   -0.95093E-03  1315   0.305E-01    0.268E-02
RMM:   7    -0.772212824441E+02   -0.29902E-03   -0.32979E-03  1257   0.175E-01    0.154E-02
RMM:   8    -0.772213820745E+02   -0.99630E-04   -0.11037E-03  1208   0.107E-01    0.641E-03
RMM:   9    -0.772214075808E+02   -0.25506E-04   -0.29555E-04   835   0.685E-02    0.199E-03
RMM:  10    -0.772214120142E+02   -0.44334E-05   -0.80305E-05   670   0.568E-02
  26 F= -.77221412E+02 E0= -.77221412E+02  d E =-.115365E+00
       N       E                     dE             d eps       ncg     rms          rms(c)
DAV:   1    -0.771861498851E+02    0.35258E-01   -0.57608E+01   768   0.393E+01    0.341E+00
RMM:   2    -0.772549603507E+02   -0.68810E-01   -0.18462E+00  1012   0.597E+00    0.134E+00
RMM:   3    -0.772645028595E+02   -0.95425E-02   -0.50126E-01  1187   0.243E+00    0.755E-01
RMM:   4    -0.772648364036E+02   -0.33354E-03   -0.10774E-01  1234   0.117E+00    0.380E-01
RMM:   5    -0.772665543453E+02   -0.17179E-02   -0.35709E-02  1289   0.652E-01    0.152E-01
RMM:   6    -0.772676676467E+02   -0.11133E-02   -0.13460E-02  1311   0.374E-01    0.628E-02
RMM:   7    -0.772680812360E+02   -0.41359E-03   -0.46085E-03  1272   0.214E-01    0.193E-02
RMM:   8    -0.772682408245E+02   -0.15959E-03   -0.17121E-03  1249   0.132E-01    0.859E-03
RMM:   9    -0.772682930672E+02   -0.52243E-04   -0.57060E-04  1033   0.835E-02    0.447E-03
RMM:  10    -0.772683055074E+02   -0.12440E-04   -0.15293E-04   773   0.613E-02
  27 F= -.77268306E+02 E0= -.77268306E+02  d E =-.468935E-01
       N       E                     dE             d eps       ncg     rms          rms(c)
DAV:   1    -0.772698414546E+02   -0.15484E-02   -0.15432E+00   928   0.641E+00    0.603E-01
RMM:   2    -0.772705526144E+02   -0.71116E-03   -0.38387E-02  1012   0.926E-01    0.207E-01
RMM:   3    -0.772700354083E+02    0.51721E-03   -0.56379E-03  1137   0.314E-01    0.107E-01
RMM:   4    -0.772699972238E+02    0.38184E-04   -0.17852E-03  1168   0.141E-01    0.576E-02
RMM:   5    -0.772700468719E+02   -0.49648E-04   -0.73585E-04  1159   0.861E-02    0.228E-02
RMM:   6    -0.772700447704E+02    0.21015E-05   -0.34830E-05   558   0.531E-02
  28 F= -.77270045E+02 E0= -.77270045E+02  d E =-.486328E-01
       N       E                     dE             d eps       ncg     rms          rms(c)
DAV:   1    -0.772792936695E+02   -0.92468E-02   -0.33913E+00   768   0.946E+00    0.607E-01
RMM:   2    -0.772873630705E+02   -0.80694E-02   -0.99049E-02  1010   0.146E+00    0.216E-01
RMM:   3    -0.772878709735E+02   -0.50790E-03   -0.14302E-02  1243   0.490E-01    0.160E-01
RMM:   4    -0.772878820554E+02   -0.11082E-04   -0.44440E-03  1215   0.214E-01    0.567E-02
RMM:   5    -0.772880239705E+02   -0.14192E-03   -0.17862E-03  1211   0.126E-01    0.294E-02
RMM:   6    -0.772880697341E+02   -0.45764E-04   -0.60830E-04  1111   0.779E-02    0.112E-02
RMM:   7    -0.772880694679E+02    0.26616E-06   -0.37983E-05   575   0.507E-02
  29 F= -.77288069E+02 E0= -.77288069E+02  d E =-.180247E-01
       N       E                     dE             d eps       ncg     rms          rms(c)
DAV:   1    -0.772601476086E+02    0.27922E-01   -0.14422E+01   768   0.195E+01    0.123E+00
RMM:   2    -0.772965626780E+02   -0.36415E-01   -0.44178E-01  1011   0.305E+00    0.447E-01
RMM:   3    -0.773004743054E+02   -0.39116E-02   -0.75462E-02  1252   0.108E+00    0.339E-01
RMM:   4    -0.773007212367E+02   -0.24693E-03   -0.21981E-02  1218   0.493E-01    0.124E-01
RMM:   5    -0.773013895040E+02   -0.66827E-03   -0.85814E-03  1274   0.287E-01    0.629E-02
RMM:   6    -0.773016170927E+02   -0.22759E-03   -0.30021E-03  1296   0.172E-01    0.279E-02
RMM:   7    -0.773017102261E+02   -0.93133E-04   -0.11145E-03  1184   0.104E-01    0.114E-02
RMM:   8    -0.773017373241E+02   -0.27098E-04   -0.32454E-04   894   0.683E-02    0.468E-03
RMM:   9    -0.773017446555E+02   -0.73314E-05   -0.11351E-04   722   0.547E-02
  30 F= -.77301745E+02 E0= -.77301745E+02  d E =-.316999E-01
       N       E                     dE             d eps       ncg     rms          rms(c)
DAV:   1    -0.773077009244E+02   -0.59636E-02   -0.22752E+00   768   0.774E+00    0.872E-01
RMM:   2    -0.773116778300E+02   -0.39769E-02   -0.72346E-02  1011   0.126E+00    0.261E-01
RMM:   3    -0.773115172479E+02    0.16058E-03   -0.11651E-02  1202   0.443E-01    0.168E-01
RMM:   4    -0.773114224887E+02    0.94759E-04   -0.41448E-03  1171   0.221E-01    0.454E-02
RMM:   5    -0.773115704616E+02   -0.14797E-03   -0.18559E-03  1254   0.135E-01    0.270E-02
RMM:   6    -0.773116219181E+02   -0.51457E-04   -0.60662E-04  1060   0.791E-02    0.118E-02
RMM:   7    -0.773116243011E+02   -0.23830E-05   -0.59706E-05   637   0.541E-02
  31 F= -.77311624E+02 E0= -.77311624E+02  d E =-.987965E-02
       N       E                     dE             d eps       ncg     rms          rms(c)
DAV:   1    -0.773110525799E+02    0.56934E-03   -0.12042E+00   800   0.563E+00    0.647E-01
RMM:   2    -0.773132098862E+02   -0.21573E-02   -0.38657E-02  1013   0.920E-01    0.192E-01
RMM:   3    -0.773131677586E+02    0.42128E-04   -0.64583E-03  1212   0.329E-01    0.127E-01
RMM:   4    -0.773131236079E+02    0.44151E-04   -0.23443E-03  1169   0.164E-01    0.330E-02
RMM:   5    -0.773132060663E+02   -0.82458E-04   -0.10411E-03  1203   0.101E-01    0.195E-02
RMM:   6    -0.773132177156E+02   -0.11649E-04   -0.16897E-04   735   0.609E-02
  32 F= -.77313218E+02 E0= -.77313218E+02  d E =-.114731E-01
       N       E                     dE             d eps       ncg     rms          rms(c)
DAV:   1    -0.773180496788E+02   -0.48436E-02   -0.60376E-01   816   0.387E+00    0.439E-01
RMM:   2    -0.773179631432E+02    0.86536E-04   -0.19247E-02  1014   0.656E-01    0.162E-01
RMM:   3    -0.773176551080E+02    0.30804E-03   -0.40505E-03  1163   0.252E-01    0.105E-01
RMM:   4    -0.773175777331E+02    0.77375E-04   -0.16036E-03  1146   0.139E-01    0.366E-02
RMM:   5    -0.773176357836E+02   -0.58051E-04   -0.74412E-04  1173   0.876E-02    0.178E-02
RMM:   6    -0.773176336767E+02    0.21069E-05   -0.10824E-05   549   0.532E-02
  33 F= -.77317634E+02 E0= -.77317634E+02  d E =-.441596E-02
       N       E                     dE             d eps       ncg     rms          rms(c)
DAV:   1    -0.773251919157E+02   -0.75561E-02   -0.33969E+00   768   0.918E+00    0.105E+00
RMM:   2    -0.773244834868E+02    0.70843E-03   -0.10684E-01  1009   0.154E+00    0.385E-01
RMM:   3    -0.773224656637E+02    0.20178E-02   -0.20805E-02  1155   0.573E-01    0.251E-01
RMM:   4    -0.773219524963E+02    0.51317E-03   -0.79553E-03  1147   0.311E-01    0.878E-02
RMM:   5    -0.773222312060E+02   -0.27871E-03   -0.36480E-03  1267   0.191E-01    0.435E-02
RMM:   6    -0.773223458548E+02   -0.11465E-03   -0.13085E-03  1204   0.109E-01    0.135E-02
RMM:   7    -0.773223729940E+02   -0.27139E-04   -0.32170E-04   912   0.686E-02    0.558E-03
RMM:   8    -0.773223798434E+02   -0.68494E-05   -0.10444E-04   726   0.533E-02
  34 F= -.77322380E+02 E0= -.77322380E+02  d E =-.916213E-02
       N       E                     dE             d eps       ncg     rms          rms(c)
DAV:   1    -0.773233994727E+02   -0.10265E-02   -0.60335E-01   784   0.381E+00    0.412E-01
RMM:   2    -0.773251580783E+02   -0.17586E-02   -0.28601E-02  1005   0.734E-01    0.190E-01
RMM:   3    -0.773250760925E+02    0.81986E-04   -0.52513E-03  1253   0.276E-01    0.139E-01
RMM:   4    -0.773251031589E+02   -0.27066E-04   -0.19931E-03  1191   0.135E-01    0.385E-02
RMM:   5    -0.773251662591E+02   -0.63100E-04   -0.80763E-04  1075   0.821E-02    0.182E-02
RMM:   6    -0.773251692463E+02   -0.29872E-05   -0.79409E-05   590   0.512E-02
  35 F= -.77325169E+02 E0= -.77325169E+02  d E =-.278940E-02
       N       E                     dE             d eps       ncg     rms          rms(c)
DAV:   1    -0.773251819120E+02   -0.15653E-04   -0.27431E-02   944   0.810E-01    0.892E-02
RMM:   2    -0.773252842592E+02   -0.10235E-03   -0.15205E-03  1041   0.166E-01    0.387E-02
RMM:   3    -0.773252910081E+02   -0.67489E-05   -0.35117E-04  1084   0.715E-02    0.266E-02
RMM:   4    -0.773252832325E+02    0.77756E-05   -0.86017E-06   526   0.432E-02
  36 F= -.77325283E+02 E0= -.77325283E+02  d E =-.290339E-02
       N       E                     dE             d eps       ncg     rms          rms(c)
DAV:   1    -0.773260542894E+02   -0.76328E-03   -0.76997E-01   768   0.449E+00    0.316E-01
RMM:   2    -0.773279408583E+02   -0.18866E-02   -0.25927E-02  1023   0.730E-01    0.111E-01
RMM:   3    -0.773281584352E+02   -0.21758E-03   -0.47994E-03  1207   0.265E-01    0.893E-02
RMM:   4    -0.773281831207E+02   -0.24685E-04   -0.19075E-03  1178   0.138E-01    0.282E-02
RMM:   5    -0.773282434397E+02   -0.60319E-04   -0.75366E-04  1102   0.838E-02    0.143E-02
RMM:   6    -0.773282417983E+02    0.16414E-05   -0.68445E-05   607   0.521E-02
  37 F= -.77328242E+02 E0= -.77328242E+02  d E =-.295857E-02
       N       E                     dE             d eps       ncg     rms          rms(c)
DAV:   1    -0.773226594748E+02    0.55840E-02   -0.31610E+00   768   0.908E+00    0.637E-01
RMM:   2    -0.773303476753E+02   -0.76882E-02   -0.10444E-01  1022   0.147E+00    0.225E-01
RMM:   3    -0.773311904491E+02   -0.84277E-03   -0.18992E-02  1237   0.530E-01    0.181E-01
RMM:   4    -0.773312401940E+02   -0.49745E-04   -0.73722E-03  1209   0.264E-01    0.563E-02
RMM:   5    -0.773314863533E+02   -0.24616E-03   -0.30365E-03  1224   0.160E-01    0.291E-02
RMM:   6    -0.773315551566E+02   -0.68803E-04   -0.10049E-03  1181   0.968E-02    0.101E-02
RMM:   7    -0.773315737010E+02   -0.18544E-04   -0.24035E-04   825   0.627E-02    0.486E-03
RMM:   8    -0.773315797134E+02   -0.60124E-05   -0.99476E-05   733   0.512E-02
  38 F= -.77331580E+02 E0= -.77331580E+02  d E =-.629648E-02
       N       E                     dE             d eps       ncg     rms          rms(c)
DAV:   1    -0.773301355496E+02    0.14382E-02   -0.60334E-01   768   0.397E+00    0.280E-01
RMM:   2    -0.773316699608E+02   -0.15344E-02   -0.20683E-02  1031   0.649E-01    0.996E-02
RMM:   3    -0.773318399730E+02   -0.17001E-03   -0.38231E-03  1207   0.238E-01    0.794E-02
RMM:   4    -0.773318608298E+02   -0.20857E-04   -0.15255E-03  1185   0.126E-01    0.248E-02
RMM:   5    -0.773319078915E+02   -0.47062E-04   -0.58380E-04  1066   0.772E-02    0.122E-02
RMM:   6    -0.773319057700E+02    0.21214E-05   -0.42197E-05   580   0.499E-02
  39 F= -.77331906E+02 E0= -.77331906E+02  d E =-.662254E-02
       N       E                     dE             d eps       ncg     rms          rms(c)
DAV:   1    -0.773288441791E+02    0.30637E-02   -0.12480E+00   768   0.580E+00    0.361E-01
RMM:   2    -0.773323968334E+02   -0.35527E-02   -0.39029E-02  1015   0.897E-01    0.110E-01
RMM:   3    -0.773328280059E+02   -0.43117E-03   -0.63282E-03  1218   0.312E-01    0.893E-02
RMM:   4    -0.773329051259E+02   -0.77120E-04   -0.22090E-03  1200   0.151E-01    0.280E-02
RMM:   5    -0.773329830976E+02   -0.77972E-04   -0.88156E-04  1143   0.905E-02    0.146E-02
RMM:   6    -0.773329834304E+02   -0.33279E-06   -0.56138E-05   591   0.539E-02
  40 F= -.77332983E+02 E0= -.77332983E+02  d E =-.107766E-02
       N       E                     dE             d eps       ncg     rms          rms(c)
DAV:   1    -0.773329892573E+02   -0.61597E-05   -0.31134E-02   960   0.916E-01    0.572E-02
RMM:   2    -0.773330580720E+02   -0.68815E-04   -0.78585E-04   961   0.130E-01    0.165E-02
RMM:   3    -0.773330541195E+02    0.39525E-05   -0.24113E-05   518   0.353E-02
  41 F= -.77333054E+02 E0= -.77333054E+02  d E =-.114835E-02
       N       E                     dE             d eps       ncg     rms          rms(c)
DAV:   1    -0.773319879269E+02    0.10701E-02   -0.79293E-01   768   0.456E+00    0.337E-01
RMM:   2    -0.773337787843E+02   -0.17909E-02   -0.24070E-02  1003   0.710E-01    0.113E-01
RMM:   3    -0.773338505529E+02   -0.71769E-04   -0.35153E-03  1231   0.239E-01    0.820E-02
RMM:   4    -0.773338465557E+02    0.39972E-05   -0.12227E-03  1156   0.108E-01    0.259E-02
RMM:   5    -0.773338747653E+02   -0.28210E-04   -0.37354E-04   878   0.669E-02    0.132E-02
RMM:   6    -0.773338790676E+02   -0.43022E-05   -0.11113E-04   710   0.508E-02
  42 F= -.77333879E+02 E0= -.77333879E+02  d E =-.824948E-03
       N       E                     dE             d eps       ncg     rms          rms(c)
DAV:   1    -0.773339045959E+02   -0.29831E-04   -0.22156E-03   968   0.235E-01    0.230E-02
RMM:   2    -0.773339079722E+02   -0.33763E-05   -0.54072E-05   507   0.376E-02
  43 F= -.77333908E+02 E0= -.77333908E+02  d E =-.853853E-03
       N       E                     dE             d eps       ncg     rms          rms(c)
DAV:   1    -0.773338934602E+02    0.11136E-04   -0.76306E-02   768   0.136E+00    0.178E-01
RMM:   2    -0.773341267444E+02   -0.23328E-03   -0.35545E-03   989   0.260E-01    0.509E-02
RMM:   3    -0.773341048765E+02    0.21868E-04   -0.48567E-04  1141   0.891E-02    0.374E-02
RMM:   4    -0.773341013805E+02    0.34960E-05   -0.17885E-04   933   0.458E-02
  44 F= -.77334101E+02 E0= -.77334101E+02  d E =-.193408E-03
       N       E                     dE             d eps       ncg     rms          rms(c)
DAV:   1    -0.773340955561E+02    0.93204E-05   -0.33258E-03   896   0.283E-01    0.361E-02
RMM:   2    -0.773341110049E+02   -0.15449E-04   -0.21734E-04   984   0.630E-02    0.117E-02
RMM:   3    -0.773341064167E+02    0.45882E-05    0.11533E-05   431   0.307E-02
  45 F= -.77334106E+02 E0= -.77334106E+02  d E =-.198445E-03
