 vasp.5.4.4.18Apr17-6-g9f103f2a35 (build Feb 28 2020 14:15:47) complex          
  
 executed on             LinuxIFC date 2022.08.06  17:29:47
 running on   64 total cores
 distrk:  each k-point on   64 cores,    1 groups
 distr:  one band on NCORES_PER_BAND=  16 cores,    4 groups


--------------------------------------------------------------------------------------------------------


 INCAR:
 POTCAR:    PAW P 26Mar2009                       
 POTCAR:    PAW S 27Mar2009                       
 POTCAR:    PAW Li_sv 10Sep2004                   
 POTCAR:    PAW P 26Mar2009                       
   VRHFIN =P : s2p3                                                             
   LEXCH  = CA                                                                  
   EATOM  =   176.5121 eV,   12.9733 Ry                                         
                                                                                
   TITEL  = PAW P 26Mar2009                                                     
   LULTRA =        F    use ultrasoft PP ?                                      
   IUNSCR =        1    unscreen: 0-lin 1-nonlin 2-no                           
   RPACOR =    1.500    partial core radius                                     
   POMASS =   30.974; ZVAL   =    5.000    mass and valenz                      
   RCORE  =    1.900    outmost cutoff radius                                   
   RWIGS  =    2.330; RWIGS  =    1.233    wigner-seitz radius (au A)           
   ENMAX  =  255.155; ENMIN  =  191.366 eV                                      
   ICORE  =        2    local potential                                         
   LCOR   =        T    correct aug charges                                     
   LPAW   =        T    paw PP                                                  
   EAUG   =  342.924                                                            
   DEXC   =    0.000                                                            
   RMAX   =    1.935    core radius for proj-oper                               
   RAUG   =    1.300    factor for augmentation sphere                          
   RDEP   =    1.931    radius for radial grids                                 
   RDEPT  =    1.780    core radius for aug-charge                              
                                                                                
   Atomic configuration                                                         
    6 entries                                                                   
     n  l   j            E        occ.                                          
     1  0  0.50     -2072.7761   2.0000                                         
     2  0  0.50      -172.9483   2.0000                                         
     2  1  1.50      -124.4644   6.0000                                         
     3  0  0.50       -14.0086   2.0000                                         
     3  1  0.50        -5.6037   3.0000                                         
     3  2  1.50        -6.8029   0.0000                                         
   Description                                                                  
     l       E           TYP  RCUT    TYP  RCUT                                 
     0    -14.0086211     23  1.900                                             
     0    -11.8189335     23  1.900                                             
     1     -5.6037292     23  1.900                                             
     1     -0.3527308     23  1.900                                             
     2     -6.8029130     23  1.900                                             
  local pseudopotential read in
  partial core-charges read in
  partial kinetic energy density read in
  atomic valenz-charges read in
  non local Contribution for L=           0  read in
    real space projection operators read in
  non local Contribution for L=           0  read in
    real space projection operators read in
  non local Contribution for L=           1  read in
    real space projection operators read in
  non local Contribution for L=           1  read in
    real space projection operators read in
    PAW grid and wavefunctions read in
 
   number of l-projection  operators is LMAX  =           4
   number of lm-projection operators is LMMAX =           8
 
 POTCAR:    PAW S 27Mar2009                       
   VRHFIN =S : s2p4                                                             
   LEXCH  = CA                                                                  
   EATOM  =   277.3745 eV,   20.3864 Ry                                         
                                                                                
   TITEL  = PAW S 27Mar2009                                                     
   LULTRA =        F    use ultrasoft PP ?                                      
   IUNSCR =        1    unscreen: 0-lin 1-nonlin 2-no                           
   RPACOR =    1.500    partial core radius                                     
   POMASS =   32.066; ZVAL   =    6.000    mass and valenz                      
   RCORE  =    1.900    outmost cutoff radius                                   
   RWIGS  =    2.200; RWIGS  =    1.164    wigner-seitz radius (au A)           
   ENMAX  =  258.602; ENMIN  =  193.952 eV                                      
   ICORE  =        2    local potential                                         
   LCOR   =        T    correct aug charges                                     
   LPAW   =        T    paw PP                                                  
   EAUG   =  335.092                                                            
   DEXC   =    0.000                                                            
   RMAX   =    1.942    core radius for proj-oper                               
   RAUG   =    1.300    factor for augmentation sphere                          
   RDEP   =    1.954    radius for radial grids                                 
   RDEPT  =    1.744    core radius for aug-charge                              
                                                                                
   Atomic configuration                                                         
    6 entries                                                                   
     n  l   j            E        occ.                                          
     1  0  0.50     -2393.1495   2.0000                                         
     2  0  0.50      -210.5411   2.0000                                         
     2  1  1.50      -156.4410   6.0000                                         
     3  0  0.50       -17.2664   2.0000                                         
     3  1  0.50        -7.1129   4.0000                                         
     3  2  1.50        -8.1635   0.0000                                         
   Description                                                                  
     l       E           TYP  RCUT    TYP  RCUT                                 
     0    -17.2664422     23  1.900                                             
     0    -15.8420823     23  1.900                                             
     1     -7.1129072     23  1.900                                             
     1     -2.8398274     23  1.900                                             
     2     -8.1634956     23  1.900                                             
  local pseudopotential read in
  partial core-charges read in
  partial kinetic energy density read in
  atomic valenz-charges read in
  non local Contribution for L=           0  read in
    real space projection operators read in
  non local Contribution for L=           0  read in
    real space projection operators read in
  non local Contribution for L=           1  read in
    real space projection operators read in
  non local Contribution for L=           1  read in
    real space projection operators read in
    PAW grid and wavefunctions read in
 
   number of l-projection  operators is LMAX  =           4
   number of lm-projection operators is LMMAX =           8
 
 POTCAR:    PAW Li_sv 10Sep2004                   
   VRHFIN =Li: 1s2s                                                             
   LEXCH  = CA                                                                  
   EATOM  =   199.5738 eV,   14.6683 Ry                                         
                                                                                
   TITEL  = PAW Li_sv 10Sep2004                                                 
   LULTRA =        F    use ultrasoft PP ?                                      
   IUNSCR =        0    unscreen: 0-lin 1-nonlin 2-no                           
   RPACOR =    0.000    partial core radius                                     
   POMASS =    7.010; ZVAL   =    3.000    mass and valenz                      
   RCORE  =    1.700    outmost cutoff radius                                   
   RWIGS  =    2.050; RWIGS  =    1.085    wigner-seitz radius (au A)           
   ENMAX  =  498.387; ENMIN  =  373.790 eV                                      
   ICORE  =        2    local potential                                         
   LCOR   =        T    correct aug charges                                     
   LPAW   =        T    paw PP                                                  
   EAUG   =  628.945                                                            
   RMAX   =    1.732    core radius for proj-oper                               
   RAUG   =    1.300    factor for augmentation sphere                          
   RDEP   =    1.728    radius for radial grids                                 
   RDEPT  =    1.329    core radius for aug-charge                              
                                                                                
   Atomic configuration                                                         
    4 entries                                                                   
     n  l   j            E        occ.                                          
     1  0  0.50       -51.0884   2.0000                                         
     2  0  0.50        -2.8766   1.0000                                         
     2  1  0.50        -2.8708   0.0000                                         
     3  2  1.50        -1.3606   0.0000                                         
   Description                                                                  
     l       E           TYP  RCUT    TYP  RCUT                                 
     0    -51.0884324     23  1.400                                             
     0     -2.8766458     23  1.700                                             
     1     -2.8708293     23  1.400                                             
     2     -1.3605826     23  1.400                                             
  local pseudopotential read in
  atomic valenz-charges read in
  non local Contribution for L=           0  read in
    real space projection operators read in
  non local Contribution for L=           0  read in
    real space projection operators read in
  non local Contribution for L=           1  read in
    real space projection operators read in
    PAW grid and wavefunctions read in
 
   number of l-projection  operators is LMAX  =           3
   number of lm-projection operators is LMMAX =           5
 
 Optimization of the real space projectors (new method)

 maximal supplied QI-value         = 19.84
 optimisation between [QCUT,QGAM] = [ 10.32, 20.83] = [ 29.81,121.55] Ry 
 Optimized for a Real-space Cutoff    1.39 Angstroem

   l    n(q)    QCUT    max X(q) W(low)/X(q) W(high)/X(q)  e(spline) 
   0      9    10.318   158.476    0.64E-04    0.80E-04    0.60E-07
   0      9    10.318   128.097    0.63E-04    0.79E-04    0.60E-07
   1      8    10.318    73.217    0.18E-03    0.19E-03    0.20E-06
   1      8    10.318    48.248    0.18E-03    0.19E-03    0.19E-06
 Optimization of the real space projectors (new method)

 maximal supplied QI-value         = 19.84
 optimisation between [QCUT,QGAM] = [ 10.32, 20.83] = [ 29.81,121.55] Ry 
 Optimized for a Real-space Cutoff    1.39 Angstroem

   l    n(q)    QCUT    max X(q) W(low)/X(q) W(high)/X(q)  e(spline) 
   0      9    10.318   180.455    0.73E-04    0.81E-04    0.62E-07
   0      9    10.318   157.733    0.72E-04    0.81E-04    0.62E-07
   1      8    10.318    66.201    0.18E-03    0.20E-03    0.20E-06
   1      8    10.318    49.617    0.18E-03    0.20E-03    0.20E-06
 Optimization of the real space projectors (new method)

 maximal supplied QI-value         = 22.11
 optimisation between [QCUT,QGAM] = [ 10.39, 20.78] = [ 30.24,120.96] Ry 
 Optimized for a Real-space Cutoff    1.20 Angstroem

   l    n(q)    QCUT    max X(q) W(low)/X(q) W(high)/X(q)  e(spline) 
   0      7    10.392    10.443    0.77E-04    0.41E-05    0.30E-07
   0      7    10.392     8.514    0.20E-03    0.36E-04    0.67E-07
   1      7    10.392     5.406    0.20E-03    0.20E-03    0.12E-06
  PAW P 26Mar2009                       :
 energy of atom  1       EATOM= -176.5121
 kinetic energy error for atom=    0.0021 (will be added to EATOM!!)
  PAW S 27Mar2009                       :
 energy of atom  2       EATOM= -277.3745
 kinetic energy error for atom=    0.0041 (will be added to EATOM!!)
  PAW Li_sv 10Sep2004                   :
 energy of atom  3       EATOM= -199.5738
 kinetic energy error for atom=    0.0564 (will be added to EATOM!!)
 
 
 POSCAR: Good luck                               
  positions in cartesian coordinates
  No initial velocities read in
 exchange correlation table for  LEXCH =        2
   RHO(1)=    0.500       N(1)  =     2000
   RHO(2)=  100.500       N(2)  =     4000
 


--------------------------------------------------------------------------------------------------------


 ion  position               nearest neighbor table
   1  0.000  0.752  0.921-   6 2.02   3 2.02   7 2.03   9 2.07
   2  0.500  0.248  0.421-   4 2.02   5 2.02   8 2.03  10 2.07
   3  0.223  0.602  0.041-  16 1.99   1 2.02  12 2.15  15 2.49
   4  0.277  0.398  0.541-  15 1.99   2 2.02  11 2.15  16 2.49
   5  0.723  0.398  0.541-  14 1.99   2 2.02  11 2.15  13 2.49
   6  0.777  0.602  0.041-  13 1.99   1 2.02  12 2.15  14 2.49
   7  0.000  0.805  0.580-   1 2.03  14 2.05  15 2.05
   8  0.500  0.195  0.080-   2 2.03  13 2.05  16 2.05
   9  0.000  0.043  0.068-   1 2.07  13 2.65  16 2.65
  10  0.500  0.957  0.568-   2 2.07  14 2.65  15 2.65
  11  0.000  0.320  0.634-   5 2.15   4 2.15
  12  0.500  0.680  0.134-   3 2.15   6 2.15
  13  0.741  0.309  0.952-   6 1.99   8 2.05   5 2.49   9 2.65
  14  0.759  0.691  0.452-   5 1.99   7 2.05   6 2.49  10 2.65
  15  0.241  0.691  0.452-   4 1.99   7 2.05   3 2.49  10 2.65
  16  0.259  0.309  0.952-   3 1.99   8 2.05   4 2.49   9 2.65
 
  LATTYP: Found a simple orthorhombic cell.
 ALAT       =     5.8806895309
 B/A-ratio  =     1.1020829413
 C/A-ratio  =     1.2373481467
  
  Lattice vectors:
  
 A1 = (   0.0000000000,   0.0000000000,  -5.8806895309)
 A2 = (   0.0000000000,  -6.4810076153,   0.0000000000)
 A3 = (  -7.2764602924,   0.0000000000,   0.0000000000)


Analysis of symmetry for initial positions (statically):
=====================================================================
 Subroutine PRICEL returns:
 Original cell was already a primitive cell.
 

 Routine SETGRP: Setting up the symmetry group for a 
 simple orthorhombic supercell.


 Subroutine GETGRP returns: Found  4 space group operations
 (whereof  2 operations were pure point group operations)
 out of a pool of  8 trial point group operations.


The static configuration has the point symmetry C_1h.
 The point group associated with its full space group is C_2v.


Analysis of symmetry for dynamics (positions and initial velocities):
=====================================================================
 Subroutine PRICEL returns:
 Original cell was already a primitive cell.
 

 Routine SETGRP: Setting up the symmetry group for a 
 simple orthorhombic supercell.


 Subroutine GETGRP returns: Found  4 space group operations
 (whereof  2 operations were pure point group operations)
 out of a pool of  8 trial point group operations.


The dynamic configuration has the point symmetry C_1h.
 The point group associated with its full space group is C_2v.


 Subroutine INISYM returns: Found  4 space group operations
 (whereof  2 operations are pure point group operations),
 and found     1 'primitive' translations

 
 
 KPOINTS: Automatic mesh                          

Automatic generation of k-mesh.
Space group operators:
 irot       det(A)        alpha          n_x          n_y          n_z        tau_x        tau_y        tau_z
    1     1.000000     0.000000     1.000000     0.000000     0.000000     0.000000     0.000000     0.000000
    2    -1.000000   180.000000     1.000000     0.000000     0.000000     0.000000     0.000000     0.000000
    3    -1.000000   180.000000     0.000000     1.000000     0.000000    -0.500000    -0.000000    -0.500000
    4     1.000000   180.000000     0.000000     0.000000     1.000000    -0.500000    -0.000000    -0.500000
 
 Subroutine IBZKPT returns following result:
 ===========================================
 
 Found      8 irreducible k-points:
 
 Following reciprocal coordinates:
            Coordinates               Weight
  0.125000  0.125000  0.125000      8.000000
  0.375000  0.125000  0.125000      8.000000
  0.125000  0.375000  0.125000      8.000000
  0.375000  0.375000  0.125000      8.000000
  0.125000  0.125000  0.375000      8.000000
  0.375000  0.125000  0.375000      8.000000
  0.125000  0.375000  0.375000      8.000000
  0.375000  0.375000  0.375000      8.000000
 
 Following cartesian coordinates:
            Coordinates               Weight
  0.017179  0.019287  0.021256      8.000000
  0.051536  0.019287  0.021256      8.000000
  0.017179  0.057861  0.021256      8.000000
  0.051536  0.057861  0.021256      8.000000
  0.017179  0.019287  0.063768      8.000000
  0.051536  0.019287  0.063768      8.000000
  0.017179  0.057861  0.063768      8.000000
  0.051536  0.057861  0.063768      8.000000
 
 TETIRR: Found    140 inequivalent tetrahedra from      384


--------------------------------------------------------------------------------------------------------




 Dimension of arrays:
   k-points           NKPTS =      8   k-points in BZ     NKDIM =      8   number of bands    NBANDS=     48
   number of dos      NEDOS =    301   number of ions     NIONS =     16
   non local maximal  LDIM  =      4   non local SUM 2l+1 LMDIM =      8
   total plane-waves  NPLWV =  96000
   max r-space proj   IRMAX =   3924   max aug-charges    IRDMAX=  11104
   dimension x,y,z NGX =    50 NGY =   48 NGZ =   40
   dimension x,y,z NGXF=   100 NGYF=   96 NGZF=   80
   support grid    NGXF=   100 NGYF=   96 NGZF=   80
   ions per type =               2   8   6
   NGX,Y,Z   is equivalent  to a cutoff of  11.42, 12.31, 11.31 a.u.
   NGXF,Y,Z  is equivalent  to a cutoff of  22.85, 24.63, 22.62 a.u.

 SYSTEM =  unknown system                          
 POSCAR =  Good luck                               

 Startparameter for this run:
   NWRITE =      2    write-flag & timer
   PREC   = accura    normal or accurate (medium, high low for compatibility)
   ISTART =      0    job   : 0-new  1-cont  2-samecut
   ICHARG =      2    charge: 1-file 2-atom 10-const
   ISPIN  =      1    spin polarized calculation?
   LNONCOLLINEAR =      F non collinear calculations
   LSORBIT =      F    spin-orbit coupling
   INIWAV =      1    electr: 0-lowe 1-rand  2-diag
   LASPH  =      F    aspherical Exc in radial PAW
   METAGGA=      F    non-selfconsistent MetaGGA calc.

 Electronic Relaxation 1
   ENCUT  =  420.0 eV  30.87 Ry    5.56 a.u.  12.16 10.83  9.83*2*pi/ulx,y,z
   ENINI  =  420.0     initial cutoff
   ENAUG  =  628.9 eV  augmentation charge cutoff
   NELM   =    100;   NELMIN=  2; NELMDL= -5     # of ELM steps 
   EDIFF  = 0.2E-04   stopping-criterion for ELM
   LREAL  =      T    real-space projection
   NLSPLINE    = F    spline interpolate recip. space projectors
   LCOMPAT=      F    compatible to vasp.4.4
   GGA_COMPAT  = T    GGA compatible to vasp.4.4-vasp.4.6
   LMAXPAW     = -100 max onsite density
   LMAXMIX     =    2 max onsite mixed and CHGCAR
   VOSKOWN=      0    Vosko Wilk Nusair interpolation
   ROPT   =   -0.00025  -0.00025  -0.00025
 Ionic relaxation
   EDIFFG = 0.2E-03   stopping-criterion for IOM
   NSW    =    100    number of steps for IOM
   NBLOCK =      1;   KBLOCK =    100    inner block; outer block 
   IBRION =      2    ionic relax: 0-MD 1-quasi-New 2-CG
   NFREE  =      1    steps in history (QN), initial steepest desc. (CG)
   ISIF   =      3    stress and relaxation
   IWAVPR =     11    prediction:  0-non 1-charg 2-wave 3-comb
   ISYM   =      2    0-nonsym 1-usesym 2-fastsym
   LCORR  =      T    Harris-Foulkes like correction to forces

   POTIM  = 0.5000    time-step for ionic-motion
   TEIN   =    0.0    initial temperature
   TEBEG  =    0.0;   TEEND  =   0.0 temperature during run
   SMASS  =  -3.00    Nose mass-parameter (am)
   estimated Nose-frequenzy (Omega)   =  0.10E-29 period in steps =****** mass=  -0.121E-26a.u.
   SCALEE = 1.0000    scale energy and forces
   NPACO  =    256;   APACO  = 16.0  distance and # of slots for P.C.
   PSTRESS=    0.0 pullay stress

  Mass of Ions in am
   POMASS =  30.97 32.07  7.01
  Ionic Valenz
   ZVAL   =   5.00  6.00  3.00
  Atomic Wigner-Seitz radii
   RWIGS  =  -1.00 -1.00 -1.00
  virtual crystal weights 
   VCA    =   1.00  1.00  1.00
   NELECT =      76.0000    total number of electrons
   NUPDOWN=      -1.0000    fix difference up-down

 DOS related values:
   EMIN   =  10.00;   EMAX   =-10.00  energy-range for DOS
   EFERMI =   0.00
   ISMEAR =    -5;   SIGMA  =   0.20  broadening in eV -4-tet -1-fermi 0-gaus

 Electronic relaxation 2 (details)
   IALGO  =     68    algorithm
   LDIAG  =      T    sub-space diagonalisation (order eigenvalues)
   LSUBROT=      F    optimize rotation matrix (better conditioning)
   TURBO    =      0    0=normal 1=particle mesh
   IRESTART =      0    0=no restart 2=restart with 2 vectors
   NREBOOT  =      0    no. of reboots
   NMIN     =      0    reboot dimension
   EREF     =   0.00    reference energy to select bands
   IMIX   =      4    mixing-type and parameters
     AMIX     =   0.40;   BMIX     =  1.00
     AMIX_MAG =   1.60;   BMIX_MAG =  1.00
     AMIN     =   0.10
     WC   =   100.;   INIMIX=   1;  MIXPRE=   1;  MAXMIX= -45

 Intra band minimization:
   WEIMIN = 0.0010     energy-eigenvalue tresh-hold
   EBREAK =  0.10E-06  absolut break condition
   DEPER  =   0.30     relativ break condition  

   TIME   =   0.40     timestep for ELM

  volume/ion in A,a.u.               =      17.33       116.97
  Fermi-wavevector in a.u.,A,eV,Ry     =   1.063365  2.009469 15.384723  1.130745
  Thomas-Fermi vector in A             =   2.198847
 
 Write flags
   LWAVE        =      F    write WAVECAR
   LDOWNSAMPLE  =      F    k-point downsampling of WAVECAR
   LCHARG       =      F    write CHGCAR
   LVTOT        =      F    write LOCPOT, total local potential
   LVHAR        =      F    write LOCPOT, Hartree potential only
   LELF         =      F    write electronic localiz. function (ELF)
   LORBIT       =      0    0 simple, 1 ext, 2 COOP (PROOUT), +10 PAW based schemes


 Dipole corrections
   LMONO  =      F    monopole corrections only (constant potential shift)
   LDIPOL =      F    correct potential (dipole corrections)
   IDIPOL =      0    1-x, 2-y, 3-z, 4-all directions 
   EPSILON=  1.0000000 bulk dielectric constant

 Exchange correlation treatment:
   GGA     =    --    GGA type
   LEXCH   =     2    internal setting for exchange type
   VOSKOWN=      0    Vosko Wilk Nusair interpolation
   LHFCALC =     F    Hartree Fock is set to
   LHFONE  =     F    Hartree Fock one center treatment
   AEXX    =    0.0000 exact exchange contribution

 Linear response parameters
   LEPSILON=     F    determine dielectric tensor
   LRPA    =     F    only Hartree local field effects (RPA)
   LNABLA  =     F    use nabla operator in PAW spheres
   LVEL    =     F    velocity operator in full k-point grid
   LINTERFAST=   F  fast interpolation
   KINTER  =     0    interpolate to denser k-point grid
   CSHIFT  =0.1000    complex shift for real part using Kramers Kronig
   OMEGAMAX=  -1.0    maximum frequency
   DEG_THRESHOLD= 0.2000000E-02 threshold for treating states as degnerate
   RTIME   =   -0.100 relaxation time in fs
  (WPLASMAI=    0.000 imaginary part of plasma frequency in eV, 0.658/RTIME)
   DFIELD  = 0.0000000 0.0000000 0.0000000 field for delta impulse in time
 
 Orbital magnetization related:
   ORBITALMAG=     F  switch on orbital magnetization
   LCHIMAG   =     F  perturbation theory with respect to B field
   DQ        =  0.001000  dq finite difference perturbation B field
   LLRAUG    =     F  two centre corrections for induced B field



--------------------------------------------------------------------------------------------------------


 conjugate gradient relaxation of ions
 charge density and potential will be updated during run
 non-spin polarized calculation
 RMM-DIIS sequential band-by-band and
  variant of blocked Davidson during initial phase
 perform sub-space diagonalisation
    before iterative eigenvector-optimisation
 modified Broyden-mixing scheme, WC =      100.0
 initial mixing is a Kerker type mixing with AMIX =  0.4000 and BMIX =      1.0000
 Hartree-type preconditioning will be used
 using additional bands           10
 real space projection scheme for non local part
 use partial core corrections
 calculate Harris-corrections to forces 
   (improved forces if not selfconsistent)
 use of overlap-Matrix (Vanderbilt PP)
 Fermi weights with tetrahedron method with Bloechl corrections


--------------------------------------------------------------------------------------------------------


  energy-cutoff  :      420.00
  volume of cell :      277.33
      direct lattice vectors                 reciprocal lattice vectors
     7.276460292  0.000000000  0.000000000     0.137429459  0.000000000  0.000000000
     0.000000000  6.481007615  0.000000000     0.000000000  0.154296995  0.000000000
     0.000000000  0.000000000  5.880689531     0.000000000  0.000000000  0.170048086

  length of vectors
     7.276460292  6.481007615  5.880689531     0.137429459  0.154296995  0.170048086


 
 k-points in units of 2pi/SCALE and weight: Automatic mesh                          
   0.01717868  0.01928712  0.02125601       0.125
   0.05153605  0.01928712  0.02125601       0.125
   0.01717868  0.05786137  0.02125601       0.125
   0.05153605  0.05786137  0.02125601       0.125
   0.01717868  0.01928712  0.06376803       0.125
   0.05153605  0.01928712  0.06376803       0.125
   0.01717868  0.05786137  0.06376803       0.125
   0.05153605  0.05786137  0.06376803       0.125
 
 k-points in reciprocal lattice and weights: Automatic mesh                          
   0.12500000  0.12500000  0.12500000       0.125
   0.37500000  0.12500000  0.12500000       0.125
   0.12500000  0.37500000  0.12500000       0.125
   0.37500000  0.37500000  0.12500000       0.125
   0.12500000  0.12500000  0.37500000       0.125
   0.37500000  0.12500000  0.37500000       0.125
   0.12500000  0.37500000  0.37500000       0.125
   0.37500000  0.37500000  0.37500000       0.125
 
 position of ions in fractional coordinates (direct lattice) 
   0.00000000  0.75187285  0.92093628
   0.50000000  0.24812715  0.42093628
   0.22332455  0.60171866  0.04126437
   0.27667545  0.39828134  0.54126437
   0.72332455  0.39828134  0.54126437
   0.77667545  0.60171866  0.04126437
   0.00000000  0.80528315  0.58006808
   0.50000000  0.19471685  0.08006808
   0.00000000  0.04259809  0.06756774
   0.50000000  0.95740191  0.56756774
   0.00000000  0.32041752  0.63419497
   0.50000000  0.67958248  0.13419497
   0.74071194  0.30894288  0.95170546
   0.75928806  0.69105712  0.45170546
   0.24071194  0.69105712  0.45170546
   0.25928806  0.30894288  0.95170546
 
 position of ions in cartesian coordinates  (Angst):
   0.00000000  4.87289370  5.41574036
   3.63823015  1.60811392  2.47539559
   1.62501219  3.89974320  0.24266292
   2.01321796  2.58126441  3.18300769
   5.26324233  2.58126441  3.18300769
   5.65144810  3.89974320  0.24266292
   0.00000000  5.21904624  3.41120028
   3.63823015  1.26196138  0.47085551
   0.00000000  0.27607851  0.39734493
   3.63823015  6.20492910  3.33768969
   0.00000000  2.07662836  3.72950374
   3.63823015  4.40437925  0.78915897
   5.38976104  2.00226116  5.59668431
   5.52492940  4.47874646  2.65633954
   1.75153089  4.47874646  2.65633954
   1.88669925  2.00226116  5.59668431
 


--------------------------------------------------------------------------------------------------------


 k-point  1 :   0.1250 0.1250 0.1250  plane waves:    5408
 k-point  2 :   0.3750 0.1250 0.1250  plane waves:    5418
 k-point  3 :   0.1250 0.3750 0.1250  plane waves:    5428
 k-point  4 :   0.3750 0.3750 0.1250  plane waves:    5409
 k-point  5 :   0.1250 0.1250 0.3750  plane waves:    5420
 k-point  6 :   0.3750 0.1250 0.3750  plane waves:    5422
 k-point  7 :   0.1250 0.3750 0.3750  plane waves:    5422
 k-point  8 :   0.3750 0.3750 0.3750  plane waves:    5439

 maximum and minimum number of plane-waves per node :       353      323

 maximum number of plane-waves:      5439
 maximum index in each direction: 
   IXMAX=   12   IYMAX=   10   IZMAX=    9
   IXMIN=  -12   IYMIN=  -11   IZMIN=  -10


 real space projection operators:
  total allocation   :       2914.45 KBytes
  max/ min on nodes  :        240.91        166.16


 parallel 3D FFT for wavefunctions:
    minimum data exchange during FFTs selected (reduces bandwidth)
 parallel 3D FFT for charge:
    minimum data exchange during FFTs selected (reduces bandwidth)


 total amount of memory used by VASP MPI-rank0    33935. kBytes
=======================================================================

   base      :      30000. kBytes
   nonlr-proj:       1354. kBytes
   fftplans  :        733. kBytes
   grid      :       1311. kBytes
   one-center:          3. kBytes
   wavefun   :        534. kBytes
 
     INWAV:  cpu time    0.0000: real time    0.0001
 Broyden mixing: mesh for mixing (old mesh)
   NGX = 25   NGY = 21   NGZ = 19
  (NGX  =100   NGY  = 96   NGZ  = 80)
  gives a total of   9975 points

 initial charge density was supplied:
 charge density of overlapping atoms calculated
 number of electron      76.0000000 magnetization 
 keeping initial charge density in first step


--------------------------------------------------------------------------------------------------------


 Maximum index for non-local projection operator          586
 Maximum index for augmentation-charges          595 (set IRDMAX)


--------------------------------------------------------------------------------------------------------


 First call to EWALD:  gamma=   0.272
 Maximum number of real-space cells 3x 3x 3
 Maximum number of reciprocal cells 3x 3x 3

    FEWALD:  cpu time    0.0018: real time    0.0018


--------------------------------------- Iteration      1(   1)  ---------------------------------------


    POTLOK:  cpu time    0.0056: real time    0.0140
    SETDIJ:  cpu time    0.0033: real time    0.0105
     EDDAV:  cpu time    0.2061: real time    0.2212
 BZINTS: Fermi energy: 15.063332; 76.000000 electrons
         Band energy:-115.406776;  BLOECHL correction: -0.096981
       DOS:  cpu time    0.0088: real time    0.0089
    --------------------------------------------
      LOOP:  cpu time    0.2238: real time    0.2546

 eigenvalue-minimisations  :   768
 total energy-change (2. order) : 0.5046005E+03  (-0.2833712E+04)
 number of electron      76.0000000 magnetization 
 augmentation part       76.0000000 magnetization 

 Free energy of the ion-electron system (eV)
  ---------------------------------------------------
  alpha Z        PSCENC =        71.15431615
  Ewald energy   TEWEN  =     -2687.28258358
  -Hartree energ DENC   =      -669.16745765
  -exchange      EXHF   =         0.00000000
  -V(xc)+E(xc)   XCENC  =       183.11289563
  PAW double counting   =      2494.22442938    -2541.12215007
  entropy T*S    EENTRO =         0.00000000
  eigenvalues    EBANDS =      -115.40677610
  atomic energy  EATOM  =      3769.08782378
  Solvation  Ediel_sol  =         0.00000000
  ---------------------------------------------------
  free energy    TOTEN  =       504.60049754 eV

  energy without entropy =      504.60049754  energy(sigma->0) =      504.60049754


--------------------------------------------------------------------------------------------------------




--------------------------------------- Iteration      1(   2)  ---------------------------------------


     EDDAV:  cpu time    0.1943: real time    0.1954
 BZINTS: Fermi energy:  6.050741; 76.000000 electrons
         Band energy:-623.534108;  BLOECHL correction:  0.000000
       DOS:  cpu time    0.0015: real time    0.0015
    --------------------------------------------
      LOOP:  cpu time    0.1958: real time    0.1969

 eigenvalue-minimisations  :   912
 total energy-change (2. order) :-0.5081273E+03  (-0.4845407E+03)
 number of electron      76.0000000 magnetization 
 augmentation part       76.0000000 magnetization 

 Free energy of the ion-electron system (eV)
  ---------------------------------------------------
  alpha Z        PSCENC =        71.15431615
  Ewald energy   TEWEN  =     -2687.28258358
  -Hartree energ DENC   =      -669.16745765
  -exchange      EXHF   =         0.00000000
  -V(xc)+E(xc)   XCENC  =       183.11289563
  PAW double counting   =      2494.22442938    -2541.12215007
  entropy T*S    EENTRO =         0.00000000
  eigenvalues    EBANDS =      -623.53410758
  atomic energy  EATOM  =      3769.08782378
  Solvation  Ediel_sol  =         0.00000000
  ---------------------------------------------------
  free energy    TOTEN  =        -3.52683394 eV

  energy without entropy =       -3.52683394  energy(sigma->0) =       -3.52683394


--------------------------------------------------------------------------------------------------------




--------------------------------------- Iteration      1(   3)  ---------------------------------------


     EDDAV:  cpu time    0.2148: real time    0.2156
 BZINTS: Fermi energy:  2.390556; 76.000000 electrons
         Band energy:-686.558784;  BLOECHL correction:  0.000000
       DOS:  cpu time    0.0012: real time    0.0012
    --------------------------------------------
      LOOP:  cpu time    0.2160: real time    0.2168

 eigenvalue-minimisations  :  1064
 total energy-change (2. order) :-0.6302468E+02  (-0.6224246E+02)
 number of electron      76.0000000 magnetization 
 augmentation part       76.0000000 magnetization 

 Free energy of the ion-electron system (eV)
  ---------------------------------------------------
  alpha Z        PSCENC =        71.15431615
  Ewald energy   TEWEN  =     -2687.28258358
  -Hartree energ DENC   =      -669.16745765
  -exchange      EXHF   =         0.00000000
  -V(xc)+E(xc)   XCENC  =       183.11289563
  PAW double counting   =      2494.22442938    -2541.12215007
  entropy T*S    EENTRO =         0.00000000
  eigenvalues    EBANDS =      -686.55878400
  atomic energy  EATOM  =      3769.08782378
  Solvation  Ediel_sol  =         0.00000000
  ---------------------------------------------------
  free energy    TOTEN  =       -66.55151036 eV

  energy without entropy =      -66.55151036  energy(sigma->0) =      -66.55151036


--------------------------------------------------------------------------------------------------------




--------------------------------------- Iteration      1(   4)  ---------------------------------------


     EDDAV:  cpu time    0.2730: real time    0.2730
 BZINTS: Fermi energy:  2.303322; 76.000000 electrons
         Band energy:-694.962005;  BLOECHL correction:  0.000000
       DOS:  cpu time    0.0012: real time    0.0012
    --------------------------------------------
      LOOP:  cpu time    0.2742: real time    0.2742

 eigenvalue-minimisations  :  1448
 total energy-change (2. order) :-0.8403221E+01  (-0.8365987E+01)
 number of electron      76.0000000 magnetization 
 augmentation part       76.0000000 magnetization 

 Free energy of the ion-electron system (eV)
  ---------------------------------------------------
  alpha Z        PSCENC =        71.15431615
  Ewald energy   TEWEN  =     -2687.28258358
  -Hartree energ DENC   =      -669.16745765
  -exchange      EXHF   =         0.00000000
  -V(xc)+E(xc)   XCENC  =       183.11289563
  PAW double counting   =      2494.22442938    -2541.12215007
  entropy T*S    EENTRO =         0.00000000
  eigenvalues    EBANDS =      -694.96200501
  atomic energy  EATOM  =      3769.08782378
  Solvation  Ediel_sol  =         0.00000000
  ---------------------------------------------------
  free energy    TOTEN  =       -74.95473136 eV

  energy without entropy =      -74.95473136  energy(sigma->0) =      -74.95473136


--------------------------------------------------------------------------------------------------------




--------------------------------------- Iteration      1(   5)  ---------------------------------------


     EDDAV:  cpu time    0.2206: real time    0.2207
 BZINTS: Fermi energy:  2.301322; 76.000000 electrons
         Band energy:-695.813511;  BLOECHL correction:  0.000000
       DOS:  cpu time    0.0015: real time    0.0015
    CHARGE:  cpu time    0.0159: real time    0.0160
    MIXING:  cpu time    0.0007: real time    0.0016
    --------------------------------------------
      LOOP:  cpu time    0.2388: real time    0.2398

 eigenvalue-minimisations  :  1112
 total energy-change (2. order) :-0.8515062E+00  (-0.8513203E+00)
 number of electron      75.9999922 magnetization 
 augmentation part       -2.1531236 magnetization 

 Broyden mixing:
  rms(total) = 0.22881E+01    rms(broyden)= 0.22879E+01
  rms(prec ) = 0.26467E+01
  weight for this iteration     100.00

 Free energy of the ion-electron system (eV)
  ---------------------------------------------------
  alpha Z        PSCENC =        71.15431615
  Ewald energy   TEWEN  =     -2687.28258358
  -Hartree energ DENC   =      -669.16745765
  -exchange      EXHF   =         0.00000000
  -V(xc)+E(xc)   XCENC  =       183.11289563
  PAW double counting   =      2494.22442938    -2541.12215007
  entropy T*S    EENTRO =         0.00000000
  eigenvalues    EBANDS =      -695.81351120
  atomic energy  EATOM  =      3769.08782378
  Solvation  Ediel_sol  =         0.00000000
  ---------------------------------------------------
  free energy    TOTEN  =       -75.80623755 eV

  energy without entropy =      -75.80623755  energy(sigma->0) =      -75.80623755


--------------------------------------------------------------------------------------------------------




--------------------------------------- Iteration      1(   6)  ---------------------------------------


    POTLOK:  cpu time    0.0037: real time    0.0090
    SETDIJ:  cpu time    0.0009: real time    0.0009
    EDDIAG:  cpu time    0.0502: real time    0.0510
  RMM-DIIS:  cpu time    0.0704: real time    0.0822
    ORTHCH:  cpu time    0.0067: real time    0.0067
 BZINTS: Fermi energy:  2.710338; 76.000000 electrons
         Band energy:-674.376260;  BLOECHL correction:  0.000000
       DOS:  cpu time    0.0015: real time    0.0015
    CHARGE:  cpu time    0.0147: real time    0.0147
    MIXING:  cpu time    0.0004: real time    0.0004
    --------------------------------------------
      LOOP:  cpu time    0.1484: real time    0.1662

 eigenvalue-minimisations  :   777
 total energy-change (2. order) : 0.2967702E+01  (-0.9611163E+00)
 number of electron      75.9999922 magnetization 
 augmentation part       -2.0936508 magnetization 

 Broyden mixing:
  rms(total) = 0.15462E+01    rms(broyden)= 0.15462E+01
  rms(prec ) = 0.16230E+01
  weight for this iteration     100.00

 eigenvalues of (default mixing * dielectric matrix)
  average eigenvalue GAMMA=   2.3101
  2.3101

 Free energy of the ion-electron system (eV)
  ---------------------------------------------------
  alpha Z        PSCENC =        71.15431615
  Ewald energy   TEWEN  =     -2687.28258358
  -Hartree energ DENC   =      -688.32773442
  -exchange      EXHF   =         0.00000000
  -V(xc)+E(xc)   XCENC  =       185.06874431
  PAW double counting   =      4030.80031893    -4078.96316033
  entropy T*S    EENTRO =         0.00000000
  eigenvalues    EBANDS =      -674.37626020
  atomic energy  EATOM  =      3769.08782378
  Solvation  Ediel_sol  =         0.00000000
  ---------------------------------------------------
  free energy    TOTEN  =       -72.83853535 eV

  energy without entropy =      -72.83853535  energy(sigma->0) =      -72.83853535


--------------------------------------------------------------------------------------------------------




--------------------------------------- Iteration      1(   7)  ---------------------------------------


    POTLOK:  cpu time    0.0032: real time    0.0032
    SETDIJ:  cpu time    0.0010: real time    0.0010
    EDDIAG:  cpu time    0.0492: real time    0.0492
  RMM-DIIS:  cpu time    0.0728: real time    0.0728
    ORTHCH:  cpu time    0.0070: real time    0.0070
 BZINTS: Fermi energy:  2.875170; 76.000000 electrons
         Band energy:-657.375872;  BLOECHL correction:  0.000000
       DOS:  cpu time    0.0012: real time    0.0012
    CHARGE:  cpu time    0.0148: real time    0.0148
    MIXING:  cpu time    0.0004: real time    0.0004
    --------------------------------------------
      LOOP:  cpu time    0.1497: real time    0.1497

 eigenvalue-minimisations  :   799
 total energy-change (2. order) : 0.5016804E+00  (-0.2955408E+00)
 number of electron      75.9999922 magnetization 
 augmentation part       -2.0482572 magnetization 

 Broyden mixing:
  rms(total) = 0.57738E+00    rms(broyden)= 0.57738E+00
  rms(prec ) = 0.60409E+00
  weight for this iteration     100.00

 eigenvalues of (default mixing * dielectric matrix)
  average eigenvalue GAMMA=   1.9158
  1.3830  2.4486

 Free energy of the ion-electron system (eV)
  ---------------------------------------------------
  alpha Z        PSCENC =        71.15431615
  Ewald energy   TEWEN  =     -2687.28258358
  -Hartree energ DENC   =      -705.78232120
  -exchange      EXHF   =         0.00000000
  -V(xc)+E(xc)   XCENC  =       186.81964073
  PAW double counting   =      6525.46307192    -6574.42093046
  entropy T*S    EENTRO =         0.00000000
  eigenvalues    EBANDS =      -657.37587227
  atomic energy  EATOM  =      3769.08782378
  Solvation  Ediel_sol  =         0.00000000
  ---------------------------------------------------
  free energy    TOTEN  =       -72.33685493 eV

  energy without entropy =      -72.33685493  energy(sigma->0) =      -72.33685493


--------------------------------------------------------------------------------------------------------




--------------------------------------- Iteration      1(   8)  ---------------------------------------


    POTLOK:  cpu time    0.0032: real time    0.0032
    SETDIJ:  cpu time    0.0010: real time    0.0010
    EDDIAG:  cpu time    0.0488: real time    0.0488
  RMM-DIIS:  cpu time    0.0809: real time    0.0809
    ORTHCH:  cpu time    0.0066: real time    0.0066
 BZINTS: Fermi energy:  2.882324; 76.000000 electrons
         Band energy:-654.331215;  BLOECHL correction:  0.000000
       DOS:  cpu time    0.0012: real time    0.0012
    CHARGE:  cpu time    0.0145: real time    0.0145
    MIXING:  cpu time    0.0005: real time    0.0005
    --------------------------------------------
      LOOP:  cpu time    0.1567: real time    0.1567

 eigenvalue-minimisations  :   869
 total energy-change (2. order) : 0.8456259E-01  (-0.3342860E-01)
 number of electron      75.9999922 magnetization 
 augmentation part       -2.0577635 magnetization 

 Broyden mixing:
  rms(total) = 0.49079E-01    rms(broyden)= 0.49033E-01
  rms(prec ) = 0.71744E-01
  weight for this iteration     100.00

 eigenvalues of (default mixing * dielectric matrix)
  average eigenvalue GAMMA=   1.6770
  2.3155  1.1961  1.5193

 Free energy of the ion-electron system (eV)
  ---------------------------------------------------
  alpha Z        PSCENC =        71.15431615
  Ewald energy   TEWEN  =     -2687.28258358
  -Hartree energ DENC   =      -709.17886440
  -exchange      EXHF   =         0.00000000
  -V(xc)+E(xc)   XCENC  =       187.23520767
  PAW double counting   =      7798.93635949    -7847.87333642
  entropy T*S    EENTRO =         0.00000000
  eigenvalues    EBANDS =      -654.33121502
  atomic energy  EATOM  =      3769.08782378
  Solvation  Ediel_sol  =         0.00000000
  ---------------------------------------------------
  free energy    TOTEN  =       -72.25229233 eV

  energy without entropy =      -72.25229233  energy(sigma->0) =      -72.25229233


--------------------------------------------------------------------------------------------------------




--------------------------------------- Iteration      1(   9)  ---------------------------------------


    POTLOK:  cpu time    0.0032: real time    0.0032
    SETDIJ:  cpu time    0.0010: real time    0.0010
    EDDIAG:  cpu time    0.0492: real time    0.0492
  RMM-DIIS:  cpu time    0.0923: real time    0.0923
    ORTHCH:  cpu time    0.0066: real time    0.0066
 BZINTS: Fermi energy:  2.878929; 76.000000 electrons
         Band energy:-655.326376;  BLOECHL correction:  0.000000
       DOS:  cpu time    0.0012: real time    0.0012
    CHARGE:  cpu time    0.0147: real time    0.0147
    MIXING:  cpu time    0.0004: real time    0.0004
    --------------------------------------------
      LOOP:  cpu time    0.1687: real time    0.1687

 eigenvalue-minimisations  :  1022
 total energy-change (2. order) : 0.1003790E-01  (-0.3172630E-02)
 number of electron      75.9999922 magnetization 
 augmentation part       -2.0690294 magnetization 

 Broyden mixing:
  rms(total) = 0.29148E-01    rms(broyden)= 0.29133E-01
  rms(prec ) = 0.32928E-01
  weight for this iteration     100.00

 eigenvalues of (default mixing * dielectric matrix)
  average eigenvalue GAMMA=   1.7884
  2.3558  2.3558  1.2211  1.2211

 Free energy of the ion-electron system (eV)
  ---------------------------------------------------
  alpha Z        PSCENC =        71.15431615
  Ewald energy   TEWEN  =     -2687.28258358
  -Hartree energ DENC   =      -708.19760958
  -exchange      EXHF   =         0.00000000
  -V(xc)+E(xc)   XCENC  =       187.19989470
  PAW double counting   =      7716.51623553    -7765.39395517
  entropy T*S    EENTRO =         0.00000000
  eigenvalues    EBANDS =      -655.32637626
  atomic energy  EATOM  =      3769.08782378
  Solvation  Ediel_sol  =         0.00000000
  ---------------------------------------------------
  free energy    TOTEN  =       -72.24225443 eV

  energy without entropy =      -72.24225443  energy(sigma->0) =      -72.24225443


--------------------------------------------------------------------------------------------------------




--------------------------------------- Iteration      1(  10)  ---------------------------------------


    POTLOK:  cpu time    0.0032: real time    0.0032
    SETDIJ:  cpu time    0.0010: real time    0.0010
    EDDIAG:  cpu time    0.0486: real time    0.0486
  RMM-DIIS:  cpu time    0.0975: real time    0.0975
    ORTHCH:  cpu time    0.0066: real time    0.0066
 BZINTS: Fermi energy:  2.872067; 76.000000 electrons
         Band energy:-655.660209;  BLOECHL correction:  0.000000
       DOS:  cpu time    0.0012: real time    0.0012
    CHARGE:  cpu time    0.0149: real time    0.0149
    MIXING:  cpu time    0.0004: real time    0.0004
    --------------------------------------------
      LOOP:  cpu time    0.1734: real time    0.1734

 eigenvalue-minimisations  :  1065
 total energy-change (2. order) : 0.1627657E-03  (-0.6637706E-03)
 number of electron      75.9999922 magnetization 
 augmentation part       -2.0738423 magnetization 

 Broyden mixing:
  rms(total) = 0.11606E-01    rms(broyden)= 0.11595E-01
  rms(prec ) = 0.13439E-01
  weight for this iteration     100.00

 eigenvalues of (default mixing * dielectric matrix)
  average eigenvalue GAMMA=   1.7817
  2.3405  2.3405  1.9774  0.9890  1.2609

 Free energy of the ion-electron system (eV)
  ---------------------------------------------------
  alpha Z        PSCENC =        71.15431615
  Ewald energy   TEWEN  =     -2687.28258358
  -Hartree energ DENC   =      -707.88107375
  -exchange      EXHF   =         0.00000000
  -V(xc)+E(xc)   XCENC  =       187.17878879
  PAW double counting   =      7671.56874890    -7720.40790327
  entropy T*S    EENTRO =         0.00000000
  eigenvalues    EBANDS =      -655.66020869
  atomic energy  EATOM  =      3769.08782378
  Solvation  Ediel_sol  =         0.00000000
  ---------------------------------------------------
  free energy    TOTEN  =       -72.24209167 eV

  energy without entropy =      -72.24209167  energy(sigma->0) =      -72.24209167


--------------------------------------------------------------------------------------------------------




--------------------------------------- Iteration      1(  11)  ---------------------------------------


    POTLOK:  cpu time    0.0032: real time    0.0032
    SETDIJ:  cpu time    0.0010: real time    0.0010
    EDDIAG:  cpu time    0.0486: real time    0.0486
  RMM-DIIS:  cpu time    0.0978: real time    0.0978
    ORTHCH:  cpu time    0.0073: real time    0.0073
 BZINTS: Fermi energy:  2.868082; 76.000000 electrons
         Band energy:-655.331430;  BLOECHL correction:  0.000000
       DOS:  cpu time    0.0012: real time    0.0012
    CHARGE:  cpu time    0.0161: real time    0.0161
    MIXING:  cpu time    0.0009: real time    0.0009
    --------------------------------------------
      LOOP:  cpu time    0.1761: real time    0.1761

 eigenvalue-minimisations  :  1082
 total energy-change (2. order) :-0.9911999E-04  (-0.2045679E-03)
 number of electron      75.9999922 magnetization 
 augmentation part       -2.0740509 magnetization 

 Broyden mixing:
  rms(total) = 0.50266E-02    rms(broyden)= 0.50170E-02
  rms(prec ) = 0.66340E-02
  weight for this iteration     100.00

 eigenvalues of (default mixing * dielectric matrix)
  average eigenvalue GAMMA=   1.6869
  2.5752  2.5752  1.6606  1.2828  1.0137  1.0137

 Free energy of the ion-electron system (eV)
  ---------------------------------------------------
  alpha Z        PSCENC =        71.15431615
  Ewald energy   TEWEN  =     -2687.28258358
  -Hartree energ DENC   =      -708.24323534
  -exchange      EXHF   =         0.00000000
  -V(xc)+E(xc)   XCENC  =       187.20933351
  PAW double counting   =      7671.99181125    -7720.82822690
  entropy T*S    EENTRO =         0.00000000
  eigenvalues    EBANDS =      -655.33142965
  atomic energy  EATOM  =      3769.08782378
  Solvation  Ediel_sol  =         0.00000000
  ---------------------------------------------------
  free energy    TOTEN  =       -72.24219079 eV

  energy without entropy =      -72.24219079  energy(sigma->0) =      -72.24219079


--------------------------------------------------------------------------------------------------------




--------------------------------------- Iteration      1(  12)  ---------------------------------------


    POTLOK:  cpu time    0.0033: real time    0.0033
    SETDIJ:  cpu time    0.0011: real time    0.0011
    EDDIAG:  cpu time    0.0497: real time    0.0497
  RMM-DIIS:  cpu time    0.0946: real time    0.0946
    ORTHCH:  cpu time    0.0067: real time    0.0067
 BZINTS: Fermi energy:  2.862551; 76.000000 electrons
         Band energy:-655.374408;  BLOECHL correction:  0.000000
       DOS:  cpu time    0.0012: real time    0.0012
    CHARGE:  cpu time    0.0145: real time    0.0145
    MIXING:  cpu time    0.0005: real time    0.0005
    --------------------------------------------
      LOOP:  cpu time    0.1716: real time    0.1716

 eigenvalue-minimisations  :  1076
 total energy-change (2. order) :-0.3718065E-04  (-0.9549931E-04)
 number of electron      75.9999922 magnetization 
 augmentation part       -2.0752056 magnetization 

 Broyden mixing:
  rms(total) = 0.17466E-02    rms(broyden)= 0.17349E-02
  rms(prec ) = 0.20814E-02
  weight for this iteration     100.00

 eigenvalues of (default mixing * dielectric matrix)
  average eigenvalue GAMMA=   1.6956
  2.5626  2.5626  1.8124  1.8124  1.1168  1.1168  0.8854

 Free energy of the ion-electron system (eV)
  ---------------------------------------------------
  alpha Z        PSCENC =        71.15431615
  Ewald energy   TEWEN  =     -2687.28258358
  -Hartree energ DENC   =      -708.20759572
  -exchange      EXHF   =         0.00000000
  -V(xc)+E(xc)   XCENC  =       187.20894874
  PAW double counting   =      7659.89478308    -7708.72351215
  entropy T*S    EENTRO =         0.00000000
  eigenvalues    EBANDS =      -655.37440828
  atomic energy  EATOM  =      3769.08782378
  Solvation  Ediel_sol  =         0.00000000
  ---------------------------------------------------
  free energy    TOTEN  =       -72.24222797 eV

  energy without entropy =      -72.24222797  energy(sigma->0) =      -72.24222797


--------------------------------------------------------------------------------------------------------




--------------------------------------- Iteration      1(  13)  ---------------------------------------


    POTLOK:  cpu time    0.0032: real time    0.0032
    SETDIJ:  cpu time    0.0010: real time    0.0010
    EDDIAG:  cpu time    0.0496: real time    0.0496
  RMM-DIIS:  cpu time    0.0747: real time    0.0747
    ORTHCH:  cpu time    0.0066: real time    0.0066
 BZINTS: Fermi energy:  2.857031; 76.000000 electrons
         Band energy:-655.350244;  BLOECHL correction:  0.000000
       DOS:  cpu time    0.0012: real time    0.0012
    CHARGE:  cpu time    0.0146: real time    0.0146
    MIXING:  cpu time    0.0006: real time    0.0006
    --------------------------------------------
      LOOP:  cpu time    0.1515: real time    0.1515

 eigenvalue-minimisations  :   772
 total energy-change (2. order) :-0.3236706E-04  (-0.3973956E-04)
 number of electron      75.9999922 magnetization 
 augmentation part       -2.0756534 magnetization 

 Broyden mixing:
  rms(total) = 0.72639E-03    rms(broyden)= 0.71597E-03
  rms(prec ) = 0.90205E-03
  weight for this iteration     100.00

 eigenvalues of (default mixing * dielectric matrix)
  average eigenvalue GAMMA=   1.7658
  2.8095  2.8095  2.1828  1.7632  1.4052  1.1435  1.0066  1.0066

 Free energy of the ion-electron system (eV)
  ---------------------------------------------------
  alpha Z        PSCENC =        71.15431615
  Ewald energy   TEWEN  =     -2687.28258358
  -Hartree energ DENC   =      -708.24064528
  -exchange      EXHF   =         0.00000000
  -V(xc)+E(xc)   XCENC  =       187.21207620
  PAW double counting   =      7663.63849745    -7712.46150071
  entropy T*S    EENTRO =         0.00000000
  eigenvalues    EBANDS =      -655.35024434
  atomic energy  EATOM  =      3769.08782378
  Solvation  Ediel_sol  =         0.00000000
  ---------------------------------------------------
  free energy    TOTEN  =       -72.24226033 eV

  energy without entropy =      -72.24226033  energy(sigma->0) =      -72.24226033


--------------------------------------------------------------------------------------------------------




--------------------------------------- Iteration      1(  14)  ---------------------------------------


    POTLOK:  cpu time    0.0034: real time    0.0037
    SETDIJ:  cpu time    0.0010: real time    0.0010
    EDDIAG:  cpu time    0.0485: real time    0.0485
  RMM-DIIS:  cpu time    0.0787: real time    0.0787
    ORTHCH:  cpu time    0.0066: real time    0.0066
 BZINTS: Fermi energy:  2.851868; 76.000000 electrons
         Band energy:-655.333194;  BLOECHL correction:  0.000000
       DOS:  cpu time    0.0012: real time    0.0012
    CHARGE:  cpu time    0.0147: real time    0.0147
    MIXING:  cpu time    0.0005: real time    0.0005
    --------------------------------------------
      LOOP:  cpu time    0.1546: real time    0.1550

 eigenvalue-minimisations  :   846
 total energy-change (2. order) :-0.1973871E-04  (-0.2389788E-04)
 number of electron      75.9999922 magnetization 
 augmentation part       -2.0759218 magnetization 

 Broyden mixing:
  rms(total) = 0.42644E-03    rms(broyden)= 0.41921E-03
  rms(prec ) = 0.49039E-03
  weight for this iteration     100.00

 eigenvalues of (default mixing * dielectric matrix)
  average eigenvalue GAMMA=   1.7124
  3.2636  2.4155  1.9332  1.9332  1.9257  1.0930  1.0930  0.9851  0.7698

 Free energy of the ion-electron system (eV)
  ---------------------------------------------------
  alpha Z        PSCENC =        71.15431615
  Ewald energy   TEWEN  =     -2687.28258358
  -Hartree energ DENC   =      -708.26596985
  -exchange      EXHF   =         0.00000000
  -V(xc)+E(xc)   XCENC  =       187.21416601
  PAW double counting   =      7663.27392033    -7712.09075847
  entropy T*S    EENTRO =         0.00000000
  eigenvalues    EBANDS =      -655.33319444
  atomic energy  EATOM  =      3769.08782378
  Solvation  Ediel_sol  =         0.00000000
  ---------------------------------------------------
  free energy    TOTEN  =       -72.24228007 eV

  energy without entropy =      -72.24228007  energy(sigma->0) =      -72.24228007


--------------------------------------------------------------------------------------------------------




--------------------------------------- Iteration      1(  15)  ---------------------------------------


    POTLOK:  cpu time    0.0030: real time    0.0032
    SETDIJ:  cpu time    0.0010: real time    0.0010
    EDDIAG:  cpu time    0.0541: real time    0.0541
  RMM-DIIS:  cpu time    0.0622: real time    0.0622
    ORTHCH:  cpu time    0.0074: real time    0.0074
 BZINTS: Fermi energy:  2.846675; 76.000000 electrons
         Band energy:-655.330312;  BLOECHL correction:  0.000000
       DOS:  cpu time    0.0012: real time    0.0012
    --------------------------------------------
      LOOP:  cpu time    0.1288: real time    0.1291

 eigenvalue-minimisations  :   618
 total energy-change (2. order) :-0.5480040E-05  (-0.8177799E-05)
 number of electron      75.9999922 magnetization 
 augmentation part       -2.0759218 magnetization 

 Free energy of the ion-electron system (eV)
  ---------------------------------------------------
  alpha Z        PSCENC =        71.15431615
  Ewald energy   TEWEN  =     -2687.28258358
  -Hartree energ DENC   =      -708.27026561
  -exchange      EXHF   =         0.00000000
  -V(xc)+E(xc)   XCENC  =       187.21462168
  PAW double counting   =      7663.18439565    -7712.00028177
  entropy T*S    EENTRO =         0.00000000
  eigenvalues    EBANDS =      -655.33031185
  atomic energy  EATOM  =      3769.08782378
  Solvation  Ediel_sol  =         0.00000000
  ---------------------------------------------------
  free energy    TOTEN  =       -72.24228555 eV

  energy without entropy =      -72.24228555  energy(sigma->0) =      -72.24228555


--------------------------------------------------------------------------------------------------------




 average (electrostatic) potential at core
  the test charge radii are     0.9587  0.9698  0.7079
  (the norm of the test charge is              1.0000)
       1 -88.0668       2 -88.0668       3 -88.1984       4 -88.1984       5 -88.1984
       6 -88.1984       7 -88.0713       8 -88.0713       9 -87.5619      10 -87.5619
      11 -64.5851      12 -64.5851      13 -63.2699      14 -63.2699      15 -63.2699
      16 -63.2699
 
 
 
 E-fermi :   2.8467     XC(G=0):  -9.2263     alpha+bet :-10.8903


 k-point     1 :       0.1250    0.1250    0.1250
  band No.  band energies     occupation 
      1     -41.7528      2.00000
      2     -41.7526      2.00000
      3     -40.4885      2.00000
      4     -40.4877      2.00000
      5     -40.4867      2.00000
      6     -40.4858      2.00000
      7     -12.4538      2.00000
      8     -12.2245      2.00000
      9      -9.8004      2.00000
     10      -9.5168      2.00000
     11      -9.4761      2.00000
     12      -9.2813      2.00000
     13      -8.6446      2.00000
     14      -8.5373      2.00000
     15      -5.4074      2.00000
     16      -4.9654      2.00000
     17      -2.6722      2.00000
     18      -2.5643      2.00000
     19      -2.3430      2.00000
     20      -2.2541      2.00000
     21      -2.0129      2.00000
     22      -1.6027      2.00000
     23      -0.0823      2.00000
     24      -0.0596      2.00000
     25       0.2261      2.00000
     26       0.3489      2.00000
     27       0.6340      2.00000
     28       0.7776      2.00000
     29       0.9983      2.00000
     30       1.0820      2.00000
     31       1.3935      2.00000
     32       1.7860      2.00000
     33       1.9976      2.00000
     34       2.2808      2.00000
     35       2.4566      2.00000
     36       2.5362      2.00000
     37       2.5791      2.00000
     38       2.8284      2.00000
     39       5.4394      0.00000
     40       5.6739      0.00000
     41       6.6067      0.00000
     42       6.8583      0.00000
     43       6.9082      0.00000
     44       7.0373      0.00000
     45       7.4409      0.00000
     46       7.7161      0.00000
     47       8.0118      0.00000
     48       8.2880      0.00000

 k-point     2 :       0.3750    0.1250    0.1250
  band No.  band energies     occupation 
      1     -41.7527      2.00000
      2     -41.7527      2.00000
      3     -40.4882      2.00000
      4     -40.4878      2.00000
      5     -40.4865      2.00000
      6     -40.4861      2.00000
      7     -12.3927      2.00000
      8     -12.2983      2.00000
      9      -9.6809      2.00000
     10      -9.5334      2.00000
     11      -9.4799      2.00000
     12      -9.3962      2.00000
     13      -8.5985      2.00000
     14      -8.5586      2.00000
     15      -5.2670      2.00000
     16      -5.0832      2.00000
     17      -2.6521      2.00000
     18      -2.6217      2.00000
     19      -2.4117      2.00000
     20      -2.3181      2.00000
     21      -1.8197      2.00000
     22      -1.6827      2.00000
     23      -0.2593      2.00000
     24      -0.1875      2.00000
     25       0.4598      2.00000
     26       0.5116      2.00000
     27       0.7888      2.00000
     28       0.8621      2.00000
     29       1.0409      2.00000
     30       1.1114      2.00000
     31       1.4586      2.00000
     32       1.6737      2.00000
     33       2.0250      2.00000
     34       2.2333      2.00000
     35       2.3143      2.00000
     36       2.3757      2.00000
     37       2.4765      2.00000
     38       2.6287      2.00000
     39       5.7524      0.00000
     40       5.9045      0.00000
     41       6.3715      0.00000
     42       6.4964      0.00000
     43       7.0534      0.00000
     44       7.1755      0.00000
     45       7.4097      0.00000
     46       7.7124      0.00000
     47       8.0695      0.00000
     48       8.4037      0.00000

 k-point     3 :       0.1250    0.3750    0.1250
  band No.  band energies     occupation 
      1     -41.7528      2.00000
      2     -41.7526      2.00000
      3     -40.4885      2.00000
      4     -40.4877      2.00000
      5     -40.4866      2.00000
      6     -40.4858      2.00000
      7     -12.4151      2.00000
      8     -12.2528      2.00000
      9      -9.8003      2.00000
     10      -9.5133      2.00000
     11      -9.4880      2.00000
     12      -9.2867      2.00000
     13      -8.7253      2.00000
     14      -8.5177      2.00000
     15      -5.2823      2.00000
     16      -5.0540      2.00000
     17      -2.5979      2.00000
     18      -2.5837      2.00000
     19      -2.3960      2.00000
     20      -2.1613      2.00000
     21      -1.8470      2.00000
     22      -1.5260      2.00000
     23      -0.1470      2.00000
     24      -0.0230      2.00000
     25       0.3121      2.00000
     26       0.4270      2.00000
     27       0.5429      2.00000
     28       0.7354      2.00000
     29       1.0280      2.00000
     30       1.0349      2.00000
     31       1.4017      2.00000
     32       1.5620      2.00000
     33       1.8926      2.00000
     34       2.3040      2.00000
     35       2.4131      2.00000
     36       2.5159      2.00000
     37       2.6344      2.00000
     38       2.7391      2.00000
     39       5.1827      0.00000
     40       5.5820      0.00000
     41       6.1902      0.00000
     42       6.6476      0.00000
     43       6.9337      0.00000
     44       7.2224      0.00000
     45       7.2863      0.00000
     46       7.5746      0.00000
     47       8.4016      0.00000
     48       8.7467      0.00000

 k-point     4 :       0.3750    0.3750    0.1250
  band No.  band energies     occupation 
      1     -41.7527      2.00000
      2     -41.7526      2.00000
      3     -40.4882      2.00000
      4     -40.4878      2.00000
      5     -40.4865      2.00000
      6     -40.4861      2.00000
      7     -12.3706      2.00000
      8     -12.3035      2.00000
      9      -9.7067      2.00000
     10      -9.5710      2.00000
     11      -9.4702      2.00000
     12      -9.3874      2.00000
     13      -8.6337      2.00000
     14      -8.5550      2.00000
     15      -5.1971      2.00000
     16      -5.1027      2.00000
     17      -2.6298      2.00000
     18      -2.5717      2.00000
     19      -2.3803      2.00000
     20      -2.3354      2.00000
     21      -1.6390      2.00000
     22      -1.5369      2.00000
     23      -0.1858      2.00000
     24      -0.1001      2.00000
     25       0.1454      2.00000
     26       0.3977      2.00000
     27       0.6815      2.00000
     28       0.7027      2.00000
     29       0.8724      2.00000
     30       1.2367      2.00000
     31       1.4997      2.00000
     32       1.6159      2.00000
     33       1.9724      2.00000
     34       2.1516      2.00000
     35       2.2999      2.00000
     36       2.4126      2.00000
     37       2.7408      2.00000
     38       2.8011      2.00000
     39       5.5571      0.00000
     40       5.8110      0.00000
     41       6.0528      0.00000
     42       6.2855      0.00000
     43       6.8725      0.00000
     44       7.1411      0.00000
     45       7.5286      0.00000
     46       7.6695      0.00000
     47       8.2426      0.00000
     48       8.6659      0.00000

 k-point     5 :       0.1250    0.1250    0.3750
  band No.  band energies     occupation 
      1     -41.7527      2.00000
      2     -41.7526      2.00000
      3     -40.4882      2.00000
      4     -40.4879      2.00000
      5     -40.4864      2.00000
      6     -40.4861      2.00000
      7     -12.3513      2.00000
      8     -12.2516      2.00000
      9      -9.6896      2.00000
     10      -9.5680      2.00000
     11      -9.5581      2.00000
     12      -9.4224      2.00000
     13      -8.7206      2.00000
     14      -8.6486      2.00000
     15      -5.2018      2.00000
     16      -5.0075      2.00000
     17      -2.4396      2.00000
     18      -2.3859      2.00000
     19      -2.1743      2.00000
     20      -1.9827      2.00000
     21      -1.7982      2.00000
     22      -1.7165      2.00000
     23      -0.0848      2.00000
     24       0.0154      2.00000
     25       0.1384      2.00000
     26       0.3725      2.00000
     27       0.5218      2.00000
     28       0.7761      2.00000
     29       0.8702      2.00000
     30       0.9375      2.00000
     31       1.3386      2.00000
     32       1.5780      2.00000
     33       1.7395      2.00000
     34       2.2697      2.00000
     35       2.4974      2.00000
     36       2.5408      2.00000
     37       2.6306      2.00000
     38       2.6851      2.00000
     39       5.3680      0.00000
     40       5.8095      0.00000
     41       6.3689      0.00000
     42       6.5825      0.00000
     43       6.8238      0.00000
     44       7.1375      0.00000
     45       7.2884      0.00000
     46       7.3221      0.00000
     47       8.1221      0.00000
     48       8.2829      0.00000

 k-point     6 :       0.3750    0.1250    0.3750
  band No.  band energies     occupation 
      1     -41.7527      2.00000
      2     -41.7527      2.00000
      3     -40.4880      2.00000
      4     -40.4878      2.00000
      5     -40.4865      2.00000
      6     -40.4863      2.00000
      7     -12.3226      2.00000
      8     -12.2813      2.00000
      9      -9.7195      2.00000
     10      -9.6669      2.00000
     11      -9.4558      2.00000
     12      -9.3986      2.00000
     13      -8.6911      2.00000
     14      -8.6620      2.00000
     15      -5.1384      2.00000
     16      -5.0570      2.00000
     17      -2.6136      2.00000
     18      -2.5901      2.00000
     19      -2.0618      2.00000
     20      -1.9668      2.00000
     21      -1.6413      2.00000
     22      -1.6046      2.00000
     23      -0.1853      2.00000
     24      -0.1422      2.00000
     25       0.3184      2.00000
     26       0.5129      2.00000
     27       0.7099      2.00000
     28       0.8819      2.00000
     29       0.9909      2.00000
     30       1.0341      2.00000
     31       1.2064      2.00000
     32       1.4458      2.00000
     33       1.7091      2.00000
     34       1.9170      2.00000
     35       2.2928      2.00000
     36       2.3320      2.00000
     37       2.7103      2.00000
     38       2.7224      2.00000
     39       5.5675      0.00000
     40       5.8149      0.00000
     41       6.3034      0.00000
     42       6.4790      0.00000
     43       7.0647      0.00000
     44       7.1871      0.00000
     45       7.3881      0.00000
     46       7.4758      0.00000
     47       8.1785      0.00000
     48       8.2925      0.00000

 k-point     7 :       0.1250    0.3750    0.3750
  band No.  band energies     occupation 
      1     -41.7527      2.00000
      2     -41.7526      2.00000
      3     -40.4882      2.00000
      4     -40.4879      2.00000
      5     -40.4864      2.00000
      6     -40.4861      2.00000
      7     -12.3290      2.00000
      8     -12.2583      2.00000
      9      -9.6797      2.00000
     10      -9.5810      2.00000
     11      -9.5723      2.00000
     12      -9.4317      2.00000
     13      -8.7681      2.00000
     14      -8.6515      2.00000
     15      -5.1375      2.00000
     16      -5.0426      2.00000
     17      -2.4624      2.00000
     18      -2.3230      2.00000
     19      -2.1387      2.00000
     20      -2.0313      2.00000
     21      -1.6057      2.00000
     22      -1.5110      2.00000
     23      -0.1153      2.00000
     24       0.1210      2.00000
     25       0.1987      2.00000
     26       0.3770      2.00000
     27       0.6597      2.00000
     28       0.7526      2.00000
     29       0.8571      2.00000
     30       0.9280      2.00000
     31       1.1196      2.00000
     32       1.3046      2.00000
     33       1.6772      2.00000
     34       2.0892      2.00000
     35       2.4559      2.00000
     36       2.5016      2.00000
     37       2.6044      2.00000
     38       2.6691      2.00000
     39       5.1904      0.00000
     40       5.4622      0.00000
     41       6.2627      0.00000
     42       6.5223      0.00000
     43       6.9121      0.00000
     44       6.9337      0.00000
     45       7.1863      0.00000
     46       7.4143      0.00000
     47       8.4685      0.00000
     48       8.5776      0.00000

 k-point     8 :       0.3750    0.3750    0.3750
  band No.  band energies     occupation 
      1     -41.7527      2.00000
      2     -41.7527      2.00000
      3     -40.4880      2.00000
      4     -40.4879      2.00000
      5     -40.4865      2.00000
      6     -40.4863      2.00000
      7     -12.3088      2.00000
      8     -12.2795      2.00000
      9      -9.6959      2.00000
     10      -9.6503      2.00000
     11      -9.4893      2.00000
     12      -9.4246      2.00000
     13      -8.7400      2.00000
     14      -8.6898      2.00000
     15      -5.0745      2.00000
     16      -5.0352      2.00000
     17      -2.5444      2.00000
     18      -2.5003      2.00000
     19      -2.0096      2.00000
     20      -1.9571      2.00000
     21      -1.5579      2.00000
     22      -1.5236      2.00000
     23      -0.2138      2.00000
     24      -0.1277      2.00000
     25       0.2027      2.00000
     26       0.2725      2.00000
     27       0.7153      2.00000
     28       0.7792      2.00000
     29       0.9838      2.00000
     30       1.0781      2.00000
     31       1.2933      2.00000
     32       1.4126      2.00000
     33       1.6509      2.00000
     34       1.8286      2.00000
     35       2.3238      2.00000
     36       2.3936      2.00000
     37       2.7280      2.00000
     38       2.7743      2.00000
     39       5.4986      0.00000
     40       5.6828      0.00000
     41       6.1189      0.00000
     42       6.2691      0.00000
     43       6.7857      0.00000
     44       6.8607      0.00000
     45       7.3942      0.00000
     46       7.5842      0.00000
     47       8.3749      0.00000
     48       8.6330      0.00000


--------------------------------------------------------------------------------------------------------


 soft charge-density along one line, spin component           1
         0         1         2         3         4         5         6         7         8         9
 total charge-density along one line
 
 pseudopotential strength for first ion, spin component:           1
 29.997  37.426  -0.017  -0.000  -0.000  -0.027  -0.000  -0.000
 37.426  46.701  -0.021  -0.000  -0.000  -0.033  -0.001  -0.000
 -0.017  -0.021   6.575  -0.001   0.000  10.181  -0.002   0.000
 -0.000  -0.000  -0.001   6.575  -0.000  -0.002  10.182  -0.000
 -0.000  -0.000   0.000  -0.000   6.576   0.000  -0.000  10.183
 -0.027  -0.033  10.181  -0.002   0.000  15.784  -0.003   0.000
 -0.000  -0.001  -0.002  10.182  -0.000  -0.003  15.785  -0.000
 -0.000  -0.000   0.000  -0.000  10.183   0.000  -0.000  15.786
 total augmentation occupancy for first ion, spin component:           1
 11.111  -6.420  -0.304   0.202   0.000   0.113  -0.076   0.000
 -6.420   4.187   0.243  -0.165   0.000  -0.088   0.054   0.000
 -0.304   0.243   4.231  -0.253   0.000  -1.394   0.127   0.000
  0.202  -0.165  -0.253   4.446   0.000   0.127  -1.488   0.000
  0.000   0.000   0.000   0.000   4.393   0.000   0.000  -1.478
  0.113  -0.088  -1.394   0.127   0.000   0.499  -0.056   0.000
 -0.076   0.054   0.127  -1.488   0.000  -0.056   0.541   0.000
  0.000   0.000   0.000   0.000  -1.478   0.000   0.000   0.535


------------------------ aborting loop because EDIFF is reached ----------------------------------------


    CHARGE:  cpu time    0.0148: real time    0.0148
    FORLOC:  cpu time    0.0008: real time    0.0008
    FORNL :  cpu time    0.0353: real time    0.0353
    STRESS:  cpu time    0.1055: real time    0.1118
    FORCOR:  cpu time    0.0031: real time    0.0031
    FORHAR:  cpu time    0.0026: real time    0.0026
    MIXING:  cpu time    0.0004: real time    0.0004
    OFIELD:  cpu time    0.0001: real time    0.0002

  FORCE on cell =-STRESS in cart. coord.  units (eV):
  Direction    XX          YY          ZZ          XY          YZ          ZX
  --------------------------------------------------------------------------------------
  Alpha Z    71.15432    71.15432    71.15432
  Ewald    -824.83517  -974.22837  -888.22496     0.00000    -0.00000     0.00000
  Hartree   267.04428   169.35312   271.87049    -0.00000     0.00000    -0.00000
  E(xc)    -279.21173  -279.01643  -278.95750    -0.00000     0.00000     0.00000
  Local    -793.60212  -543.08509  -737.09582    -0.00000     0.00000    -0.00000
  n-local   591.11236   585.91426   586.36645    -0.55984     0.01374    -0.04280
  augment   -51.67842   -50.83213   -50.64903    -0.00000     0.00000    -0.00000
  Kinetic  1037.27804  1030.93480  1028.58863    -0.04199    -0.13575    -0.08411
  Fock        0.00000     0.00000     0.00000     0.00000     0.00000     0.00000
  -------------------------------------------------------------------------------------
  Total      17.26154    10.19448     3.05257     0.00000     0.00000     0.00000
  in kB      99.72389    58.89588    17.63537     0.00000     0.00000     0.00000
  external pressure =       58.75 kB  Pullay stress =        0.00 kB


 VOLUME and BASIS-vectors are now :
 -----------------------------------------------------------------------------
  energy-cutoff  :      420.00
  volume of cell :      277.33
      direct lattice vectors                 reciprocal lattice vectors
     7.276460292  0.000000000  0.000000000     0.137429459  0.000000000  0.000000000
     0.000000000  6.481007615  0.000000000     0.000000000  0.154296995  0.000000000
     0.000000000  0.000000000  5.880689531     0.000000000  0.000000000  0.170048086

  length of vectors
     7.276460292  6.481007615  5.880689531     0.137429459  0.154296995  0.170048086


 FORCES acting on ions
    electron-ion (+dipol)            ewald-force                    non-local-force                 convergence-correction
 -----------------------------------------------------------------------------------------------
   0.809E-10 -.272E+02 0.485E+00   0.107E-08 0.300E+02 -.444E+00   0.000E+00 -.316E+00 0.479E+00   -.173E-10 -.673E-03 0.765E-04
   -.134E-08 0.272E+02 0.485E+00   -.319E-09 -.300E+02 -.444E+00   0.000E+00 0.316E+00 0.479E+00   0.184E-10 0.673E-03 0.765E-04
   -.368E+02 -.186E+02 -.144E+02   0.386E+02 0.160E+02 0.153E+02   -.286E+01 0.421E+01 -.442E+00   -.335E-03 -.163E-02 0.219E-03
   0.368E+02 0.186E+02 -.144E+02   -.386E+02 -.160E+02 0.153E+02   0.286E+01 -.421E+01 -.442E+00   0.335E-03 0.163E-02 0.219E-03
   -.368E+02 0.186E+02 -.144E+02   0.386E+02 -.160E+02 0.153E+02   -.286E+01 -.421E+01 -.442E+00   -.335E-03 0.163E-02 0.219E-03
   0.368E+02 -.186E+02 -.144E+02   -.386E+02 0.160E+02 0.153E+02   0.286E+01 0.421E+01 -.442E+00   0.335E-03 -.163E-02 0.219E-03
   -.978E-10 -.832E+02 0.512E+02   0.105E-08 0.843E+02 -.531E+02   0.000E+00 -.548E+00 0.298E+01   -.220E-10 -.273E-02 -.123E-02
   -.352E-08 0.832E+02 0.512E+02   -.456E-09 -.843E+02 -.531E+02   0.000E+00 0.548E+00 0.298E+01   0.227E-10 0.273E-02 -.123E-02
   0.624E-11 -.621E+02 -.429E+02   0.717E-09 0.637E+02 0.457E+02   0.000E+00 -.144E+01 -.317E+01   -.224E-10 0.373E-03 -.372E-03
   -.366E-08 0.621E+02 -.429E+02   -.526E-09 -.637E+02 0.457E+02   0.000E+00 0.144E+01 -.317E+01   0.223E-10 -.373E-03 -.372E-03
   0.737E-10 0.391E+02 0.214E+01   0.881E-09 -.398E+02 -.393E+01   0.000E+00 -.241E+00 0.177E+01   -.112E-10 0.850E-03 0.257E-03
   -.223E-08 -.391E+02 0.214E+01   -.230E-09 0.398E+02 -.393E+01   0.000E+00 0.241E+00 0.177E+01   0.107E-10 -.850E-03 0.257E-03
   -.220E+02 0.389E+02 0.100E+02   0.213E+02 -.389E+02 -.940E+01   0.174E+01 -.184E+01 -.168E+01   -.424E-03 0.608E-03 0.372E-03
[...]
     17      -2.5887      2.00000
     18      -2.4496      2.00000
     19      -2.3293      2.00000
     20      -2.2521      2.00000
     21      -2.1267      2.00000
     22      -2.0486      2.00000
     23      -0.1194      2.00000
     24       0.0030      2.00000
     25       0.1325      2.00000
     26       0.2598      2.00000
     27       0.5050      2.00000
     28       0.7299      2.00000
     29       0.8313      2.00000
     30       1.0376      2.00000
     31       1.2790      2.00000
     32       1.4132      2.00000
     33       1.4962      2.00000
     34       1.6069      2.00000
     35       1.7298      2.00000
     36       1.9162      2.00000
     37       1.9756      2.00000
     38       2.2092      2.00000
     39       5.0968      0.00000
     40       5.8089      0.00000
     41       6.4614      0.00000
     42       6.6014      0.00000
     43       6.6963      0.00000
     44       6.8250      0.00000
     45       7.0031      0.00000
     46       7.1196      0.00000
     47       8.3959      0.00000
     48       8.6147      0.00000

 k-point     4 :       0.3750    0.3750    0.1250
  band No.  band energies     occupation 
      1     -40.9598      2.00000
      2     -40.9598      2.00000
      3     -40.6967      2.00000
      4     -40.6964      2.00000
      5     -40.6959      2.00000
      6     -40.6956      2.00000
      7     -12.5280      2.00000
      8     -12.4967      2.00000
      9      -9.6165      2.00000
     10      -9.5779      2.00000
     11      -9.4140      2.00000
     12      -9.3704      2.00000
     13      -9.3323      2.00000
     14      -9.3124      2.00000
     15      -5.2243      2.00000
     16      -5.1403      2.00000
     17      -2.5334      2.00000
     18      -2.4468      2.00000
     19      -2.3556      2.00000
     20      -2.2861      2.00000
     21      -2.1181      2.00000
     22      -2.0746      2.00000
     23      -0.1799      2.00000
     24      -0.0579      2.00000
     25       0.0997      2.00000
     26       0.2635      2.00000
     27       0.6038      2.00000
     28       0.8281      2.00000
     29       0.9179      2.00000
     30       1.0004      2.00000
     31       1.1819      2.00000
     32       1.2620      2.00000
     33       1.3745      2.00000
     34       1.4765      2.00000
     35       1.7713      2.00000
     36       1.9226      2.00000
     37       1.9746      2.00000
     38       2.0632      2.00000
     39       5.5753      0.00000
     40       5.9532      0.00000
     41       6.5424      0.00000
     42       6.6019      0.00000
     43       6.7521      0.00000
     44       6.8795      0.00000
     45       7.1686      0.00000
     46       7.2810      0.00000
     47       8.5588      0.00000
     48       8.6280      0.00000

 k-point     5 :       0.1250    0.1250    0.3750
  band No.  band energies     occupation 
      1     -40.9598      2.00000
      2     -40.9598      2.00000
      3     -40.6968      2.00000
      4     -40.6965      2.00000
      5     -40.6958      2.00000
      6     -40.6955      2.00000
      7     -12.5249      2.00000
      8     -12.4638      2.00000
      9      -9.5849      2.00000
     10      -9.5203      2.00000
     11      -9.4629      2.00000
     12      -9.4140      2.00000
     13      -9.3983      2.00000
     14      -9.3663      2.00000
     15      -5.3432      2.00000
     16      -5.1299      2.00000
     17      -2.4239      2.00000
     18      -2.3258      2.00000
     19      -2.1631      2.00000
     20      -2.1192      2.00000
     21      -2.0340      2.00000
     22      -1.9333      2.00000
     23      -0.2422      2.00000
     24      -0.2038      2.00000
     25      -0.0728      2.00000
     26       0.0038      2.00000
     27       0.3265      2.00000
     28       0.6040      2.00000
     29       1.0011      2.00000
     30       1.0274      2.00000
     31       1.2061      2.00000
     32       1.3384      2.00000
     33       1.7081      2.00000
     34       1.8075      2.00000
     35       1.8904      2.00000
     36       1.9543      2.00000
     37       2.0156      2.00000
     38       2.1928      2.00000
     39       5.1340      0.00000
     40       5.5218      0.00000
     41       6.2353      0.00000
     42       6.4861      0.00000
     43       6.8230      0.00000
     44       6.9419      0.00000
     45       7.0574      0.00000
     46       7.2972      0.00000
     47       8.2918      0.00000
     48       8.5941      0.00000

 k-point     6 :       0.3750    0.1250    0.3750
  band No.  band energies     occupation 
      1     -40.9598      2.00000
      2     -40.9598      2.00000
      3     -40.6966      2.00000
      4     -40.6964      2.00000
      5     -40.6960      2.00000
      6     -40.6958      2.00000
      7     -12.5049      2.00000
      8     -12.4795      2.00000
      9      -9.6130      2.00000
     10      -9.5837      2.00000
     11      -9.4429      2.00000
     12      -9.4044      2.00000
     13      -9.3744      2.00000
     14      -9.3513      2.00000
     15      -5.2353      2.00000
     16      -5.1464      2.00000
     17      -2.4380      2.00000
     18      -2.3891      2.00000
     19      -2.1684      2.00000
     20      -2.1535      2.00000
     21      -1.9591      2.00000
     22      -1.9104      2.00000
     23      -0.2226      2.00000
     24      -0.1887      2.00000
     25       0.0389      2.00000
     26       0.1407      2.00000
     27       0.3337      2.00000
     28       0.4969      2.00000
     29       0.8906      2.00000
     30       0.9743      2.00000
     31       1.1267      2.00000
     32       1.1650      2.00000
     33       1.6033      2.00000
     34       1.6684      2.00000
     35       1.8436      2.00000
     36       1.9553      2.00000
     37       2.0112      2.00000
     38       2.1129      2.00000
     39       5.4573      0.00000
     40       5.6857      0.00000
     41       6.6160      0.00000
     42       6.7060      0.00000
     43       6.9068      0.00000
     44       7.0139      0.00000
     45       7.1929      0.00000
     46       7.2899      0.00000
     47       8.2423      0.00000
     48       8.4881      0.00000

 k-point     7 :       0.1250    0.3750    0.3750
  band No.  band energies     occupation 
      1     -40.9598      2.00000
      2     -40.9598      2.00000
      3     -40.6968      2.00000
      4     -40.6965      2.00000
      5     -40.6958      2.00000
      6     -40.6955      2.00000
      7     -12.4988      2.00000
      8     -12.4664      2.00000
      9      -9.6060      2.00000
     10      -9.5527      2.00000
     11      -9.4732      2.00000
     12      -9.4362      2.00000
     13      -9.3991      2.00000
     14      -9.3811      2.00000
     15      -5.2203      2.00000
     16      -5.1288      2.00000
     17      -2.3238      2.00000
     18      -2.2608      2.00000
     19      -2.2005      2.00000
     20      -2.1447      2.00000
     21      -1.9814      2.00000
     22      -1.9414      2.00000
     23      -0.1710      2.00000
     24      -0.1075      2.00000
     25       0.0153      2.00000
     26       0.0795      2.00000
     27       0.4041      2.00000
     28       0.4582      2.00000
     29       0.9254      2.00000
     30       0.9875      2.00000
     31       1.0674      2.00000
     32       1.3072      2.00000
     33       1.6007      2.00000
     34       1.7522      2.00000
     35       1.7812      2.00000
     36       1.9188      2.00000
     37       2.0766      2.00000
     38       2.1091      2.00000
     39       5.1099      0.00000
     40       5.3283      0.00000
     41       6.3741      0.00000
     42       6.4942      0.00000
     43       6.6560      0.00000
     44       6.8417      0.00000
     45       6.9120      0.00000
     46       7.0084      0.00000
     47       8.2544      0.00000
     48       8.5049      0.00000

 k-point     8 :       0.3750    0.3750    0.3750
  band No.  band energies     occupation 
      1     -40.9598      2.00000
      2     -40.9598      2.00000
      3     -40.6966      2.00000
      4     -40.6964      2.00000
      5     -40.6960      2.00000
      6     -40.6958      2.00000
      7     -12.4871      2.00000
      8     -12.4737      2.00000
      9      -9.5816      2.00000
     10      -9.5443      2.00000
     11      -9.5143      2.00000
     12      -9.4508      2.00000
     13      -9.4088      2.00000
     14      -9.3823      2.00000
     15      -5.1270      2.00000
     16      -5.0887      2.00000
     17      -2.3666      2.00000
     18      -2.3310      2.00000
     19      -2.1391      2.00000
     20      -2.1304      2.00000
     21      -1.9390      2.00000
     22      -1.9170      2.00000
     23      -0.2895      2.00000
     24      -0.1966      2.00000
     25      -0.0466      2.00000
     26       0.0110      2.00000
     27       0.5309      2.00000
     28       0.5872      2.00000
     29       0.8381      2.00000
     30       0.9367      2.00000
     31       1.0589      2.00000
     32       1.1615      2.00000
     33       1.5581      2.00000
     34       1.6332      2.00000
     35       1.7851      2.00000
     36       1.8412      2.00000
     37       2.0475      2.00000
     38       2.1237      2.00000
     39       5.4365      0.00000
     40       5.6001      0.00000
     41       6.5094      0.00000
     42       6.5497      0.00000
     43       6.8421      0.00000
     44       6.9538      0.00000
     45       7.2196      0.00000
     46       7.3123      0.00000
     47       8.1961      0.00000
     48       8.3707      0.00000


--------------------------------------------------------------------------------------------------------


 soft charge-density along one line, spin component           1
         0         1         2         3         4         5         6         7         8         9
 total charge-density along one line
 
 pseudopotential strength for first ion, spin component:           1
 30.060  37.506   0.000   0.000  -0.000   0.000   0.000  -0.000
 37.506  46.800   0.000   0.000  -0.000   0.000   0.001  -0.000
  0.000   0.000   6.586   0.000   0.000  10.199   0.000   0.000
  0.000   0.000   0.000   6.586  -0.000   0.000  10.198  -0.000
 -0.000  -0.000   0.000  -0.000   6.586   0.000  -0.000  10.198
  0.000   0.000  10.199   0.000   0.000  15.811   0.000   0.000
  0.000   0.001   0.000  10.198  -0.000   0.000  15.811  -0.000
 -0.000  -0.000   0.000  -0.000  10.198   0.000  -0.000  15.810
 total augmentation occupancy for first ion, spin component:           1
 10.862  -6.183  -0.018  -0.010   0.000   0.010   0.007   0.000
 -6.183   3.962   0.014   0.006   0.000  -0.008  -0.004   0.000
 -0.018   0.014   4.366   0.058   0.000  -1.456  -0.027   0.000
 -0.010   0.006   0.058   4.358   0.000  -0.027  -1.450   0.000
  0.000   0.000   0.000   0.000   4.339   0.000   0.000  -1.441
  0.010  -0.008  -1.456  -0.027   0.000   0.523   0.012   0.000
  0.007  -0.004  -0.027  -1.450   0.000   0.012   0.521   0.000
  0.000   0.000   0.000   0.000  -1.441   0.000   0.000   0.517


------------------------ aborting loop because EDIFF is reached ----------------------------------------


    CHARGE:  cpu time    0.0144: real time    0.0145
    FORLOC:  cpu time    0.0007: real time    0.0007
    FORNL :  cpu time    0.0347: real time    0.0348
    STRESS:  cpu time    0.1029: real time    0.1030
    FORCOR:  cpu time    0.0031: real time    0.0031
    FORHAR:  cpu time    0.0023: real time    0.0023
    MIXING:  cpu time    0.0003: real time    0.0003
    OFIELD:  cpu time    0.0000: real time    0.0000

  FORCE on cell =-STRESS in cart. coord.  units (eV):
  Direction    XX          YY          ZZ          XY          YZ          ZX
  --------------------------------------------------------------------------------------
  Alpha Z    68.76289    68.76289    68.76289
  Ewald    -926.25039  -934.25734  -877.07025     0.00000    -0.00000    -0.00000
  Hartree   207.14048   198.92137   239.62509    -0.00000     0.00000    -0.00000
  E(xc)    -277.36686  -277.33794  -277.33855    -0.00000     0.00000     0.00000
  Local    -631.38600  -612.54960  -711.18326     0.00000     0.00000    -0.00000
  n-local   603.11363   602.72584   602.63094    -0.31661    -0.05485    -0.08182
  augment   -44.68597   -44.40787   -44.47691    -0.00000     0.00000     0.00000
  Kinetic  1000.62260   998.17236   999.09835     0.11731    -0.36052     0.18395
  Fock        0.00000     0.00000     0.00000     0.00000     0.00000     0.00000
  -------------------------------------------------------------------------------------
  Total      -0.04962     0.02971     0.04829     0.00000     0.00000     0.00000
  in kB      -0.27705     0.16588     0.26961     0.00000     0.00000     0.00000
  external pressure =        0.05 kB  Pullay stress =        0.00 kB


 VOLUME and BASIS-vectors are now :
 -----------------------------------------------------------------------------
  energy-cutoff  :      420.00
  volume of cell :      286.97
      direct lattice vectors                 reciprocal lattice vectors
     7.448772877  0.000000000  0.000000000     0.134250301  0.000000000  0.000000000
     0.000000000  6.432062480  0.000000000     0.000000000  0.155471127  0.000000000
     0.000000000  0.000000000  5.989672266     0.000000000  0.000000000  0.166954043

  length of vectors
     7.448772877  6.432062480  5.989672266     0.134250301  0.155471127  0.166954043


 FORCES acting on ions
    electron-ion (+dipol)            ewald-force                    non-local-force                 convergence-correction
 -----------------------------------------------------------------------------------------------
   0.802E-10 0.306E+01 -.561E+00   0.115E-08 -.307E+01 0.434E+00   0.000E+00 -.163E-01 0.150E+00   -.468E-12 -.121E-04 0.284E-02
   -.132E-08 -.306E+01 -.561E+00   -.379E-09 0.307E+01 0.434E+00   0.000E+00 0.163E-01 0.150E+00   0.176E-12 0.121E-04 0.284E-02
   -.564E+02 0.355E+02 -.174E+02   0.583E+02 -.371E+02 0.183E+02   -.183E+01 0.164E+01 -.859E+00   -.295E-02 0.129E-02 -.143E-02
   0.564E+02 -.355E+02 -.174E+02   -.583E+02 0.371E+02 0.183E+02   0.183E+01 -.164E+01 -.859E+00   0.295E-02 -.129E-02 -.143E-02
   -.564E+02 -.355E+02 -.174E+02   0.583E+02 0.371E+02 0.183E+02   -.183E+01 -.164E+01 -.859E+00   -.295E-02 -.129E-02 -.143E-02
   0.564E+02 0.355E+02 -.174E+02   -.583E+02 -.371E+02 0.183E+02   0.183E+01 0.164E+01 -.859E+00   0.295E-02 0.129E-02 -.143E-02
   -.595E-10 0.902E+01 0.564E+02   0.938E-09 -.911E+01 -.592E+02   0.000E+00 0.797E-01 0.275E+01   -.282E-12 0.271E-02 -.141E-02
   -.368E-08 -.902E+01 0.564E+02   -.509E-09 0.911E+01 -.592E+02   0.000E+00 -.797E-01 0.275E+01   -.689E-15 -.271E-02 -.141E-02
   -.333E-10 -.619E+02 -.242E+02   0.893E-09 0.645E+02 0.253E+02   0.000E+00 -.256E+01 -.102E+01   -.118E-12 0.225E-03 0.935E-03
   -.369E-08 0.619E+02 -.242E+02   -.557E-09 -.645E+02 0.253E+02   0.000E+00 0.256E+01 -.102E+01   0.304E-12 -.225E-03 0.935E-03
   0.567E-10 -.141E+02 -.157E+01   0.612E-09 0.134E+02 0.135E+01   0.000E+00 0.773E+00 0.217E+00   -.927E-13 -.191E-02 0.772E-03
   -.264E-08 0.141E+02 -.157E+01   -.291E-09 -.134E+02 0.135E+01   0.000E+00 -.773E+00 0.217E+00   0.119E-12 0.191E-02 0.772E-03
   -.444E+01 -.503E+01 0.231E+01   0.416E+01 0.488E+01 -.223E+01   0.271E+00 0.162E+00 -.837E-01   0.104E-02 -.115E-03 0.189E-02
   0.444E+01 0.503E+01 0.231E+01   -.416E+01 -.488E+01 -.223E+01   -.271E+00 -.162E+00 -.837E-01   -.104E-02 0.115E-03 0.189E-02
   -.444E+01 0.503E+01 0.231E+01   0.416E+01 -.488E+01 -.223E+01   0.271E+00 -.162E+00 -.837E-01   0.104E-02 0.115E-03 0.189E-02
   0.444E+01 -.503E+01 0.231E+01   -.416E+01 0.488E+01 -.223E+01   -.271E+00 0.162E+00 -.837E-01   -.104E-02 -.115E-03 0.189E-02
 -----------------------------------------------------------------------------------------------
   -.356E-07 -.436E-06 -.417E+00   -.373E-13 -.107E-13 -.577E-14   0.000E+00 -.333E-15 0.414E+00   -.412E-12 -.618E-11 0.811E-02
 
 
 POSITION                                       TOTAL-FORCE (eV/Angst)
 -----------------------------------------------------------------------------------
     -0.00000      5.25261      5.74652         0.000000     -0.025348      0.025479
      3.72439      1.17946      2.75168         0.000000      0.025348      0.025479
      1.66460      4.28096      0.41391        -0.003525      0.001394      0.009216
      2.05978      2.15110      3.40875         0.003525     -0.001394      0.009216
      5.38899      2.15110      3.40875        -0.003525     -0.001394      0.009216
      5.78417      4.28096      0.41391         0.003525      0.001394      0.009216
     -0.00000      5.22925      3.71376         0.000000     -0.008693     -0.035227
      3.72439      1.20281      0.71893         0.000000      0.008693     -0.035227
     -0.00000      0.72153      0.46961         0.000000     -0.005667     -0.001438
      3.72439      5.71054      3.46445         0.000000      0.005667     -0.001438
     -0.00000      0.97874      2.84767         0.000000     -0.009843     -0.001344
      3.72439      5.45332     -0.14716         0.000000      0.009843     -0.001344
      5.65645      2.02103      5.74180        -0.005649      0.006455     -0.002951
      5.51671      4.41103      2.74696         0.005649     -0.006455     -0.002951
      1.93206      4.41103      2.74696        -0.005649     -0.006455     -0.002951
      1.79233      2.02103      5.74180         0.005649      0.006455     -0.002951
 -----------------------------------------------------------------------------------
    total drift:                               -0.000000     -0.000000      0.005615


--------------------------------------------------------------------------------------------------------



  FREE ENERGIE OF THE ION-ELECTRON SYSTEM (eV)
  ---------------------------------------------------
  free  energy   TOTEN  =       -77.33410642 eV

  energy  without entropy=      -77.33410642  energy(sigma->0) =      -77.33410642
 
 d Force = 0.7855850E-05[-0.328E-06, 0.160E-04]  d Energy = 0.5036233E-05 0.282E-05
 d Force = 0.1575152E-02[ 0.154E-02, 0.161E-02]  d Ewald  = 0.1027187E+00-0.101E+00


--------------------------------------------------------------------------------------------------------


    POTLOK:  cpu time    0.0035: real time    0.0035


--------------------------------------------------------------------------------------------------------




--------------------------------------------------------------------------------------------------------


  
 reached required accuracy - stopping structural energy minimisation
     LOOP+:  cpu time    0.6398: real time    0.6607
    4ORBIT:  cpu time    0.0000: real time    0.0000
 BZINTS: Fermi energy:  2.211176; 76.000000 electrons
         Band energy:-667.462218;  BLOECHL correction:  0.000000

 total amount of memory used by VASP MPI-rank0    33935. kBytes
=======================================================================

   base      :      30000. kBytes
   nonlr-proj:       1354. kBytes
   fftplans  :        733. kBytes
   grid      :       1311. kBytes
   one-center:          3. kBytes
   wavefun   :        534. kBytes
 
  
  
 General timing and accounting informations for this job:
 ========================================================
  
                  Total CPU time used (sec):       83.907
                            User time (sec):       83.295
                          System time (sec):        0.612
                         Elapsed time (sec):       85.999
  
                   Maximum memory used (kb):      176076.
                   Average memory used (kb):           0.
  
                          Minor page faults:        63733
                          Major page faults:          126
                 Voluntary context switches:         3252
