<?xml version="1.0" encoding="ISO-8859-1"?>
<modeling>
 <generator>
  <i name="program" type="string">vasp </i>
  <i name="version" type="string">5.4.4.18Apr17-6-g9f103f2a35  </i>
  <i name="subversion" type="string">(build Feb 28 2020 14:15:47) complex            parallel </i>
  <i name="platform" type="string">LinuxIFC </i>
  <i name="date" type="string">2022 08 06 </i>
  <i name="time" type="string">17:29:47 </i>
 </generator>
 <incar>
  <i type="int" name="ISTART">     0</i>
  <i type="string" name="PREC">accurate</i>
  <i type="string" name="ALGO"> FAST</i>
  <i type="int" name="ISPIN">     1</i>
  <i type="int" name="ICHARG">     2</i>
  <i type="int" name="INIWAV">     1</i>
  <i type="int" name="NELM">   100</i>
  <i type="int" name="IBRION">     2</i>
  <i name="EDIFF">      0.00002000</i>
  <i name="EDIFFG">      0.00020000</i>
  <i type="int" name="NSW">   100</i>
  <i type="int" name="ISIF">     3</i>
  <i name="ENCUT">    420.00000000</i>
  <i type="string" name="LREAL"> AUTO</i>
  <i type="int" name="ISMEAR">    -5</i>
  <i type="logical" name="LWAVE"> F  </i>
  <i type="logical" name="LCHARG"> F  </i>
  <v type="int" name="KPOINT_BSE">    -1     0     0     0</v>
  <i type="int" name="NELM">   100</i>
 </incar>
 <structure name="primitive_cell" >
  <crystal>
   <varray name="basis" >
    <v>       7.27646029       0.00000000       0.00000000 </v>
    <v>       0.00000000       6.48100762       0.00000000 </v>
    <v>       0.00000000       0.00000000       5.88068953 </v>
   </varray>
   <i name="volume">    277.32622950 </i>
   <varray name="rec_basis" >
    <v>       0.13742946       0.00000000       0.00000000 </v>
    <v>       0.00000000       0.15429700       0.00000000 </v>
    <v>       0.00000000       0.00000000       0.17004809 </v>
   </varray>
  </crystal>
  <varray name="positions" >
   <v>       0.00000000      -0.24812715      -0.07906372 </v>
   <v>      -0.22332455      -0.39828134       0.04126437 </v>
   <v>       0.22332455      -0.39828134       0.04126437 </v>
   <v>       0.00000000      -0.19471685      -0.41993192 </v>
   <v>       0.00000000       0.04259809       0.06756774 </v>
   <v>       0.00000000       0.32041752      -0.36580503 </v>
   <v>      -0.24071194      -0.30894288       0.45170546 </v>
   <v>       0.24071194      -0.30894288       0.45170546 </v>
   <v>      -0.25928806       0.30894288      -0.04829454 </v>
   <v>       0.25928806       0.30894288      -0.04829454 </v>
   <v>      -0.27667545       0.39828134      -0.45873563 </v>
   <v>       0.27667545       0.39828134      -0.45873563 </v>
   <v>      -0.50000000      -0.32041752       0.13419497 </v>
   <v>      -0.50000000      -0.04259809      -0.43243226 </v>
   <v>      -0.50000000       0.19471685       0.08006808 </v>
   <v>      -0.50000000       0.24812715       0.42093628 </v>
  </varray>
 </structure>
 <varray name="primitive_index" >
  <v type="int" >        1 </v>
  <v type="int" >        6 </v>
  <v type="int" >        3 </v>
  <v type="int" >        7 </v>
  <v type="int" >        9 </v>
  <v type="int" >       11 </v>
  <v type="int" >       14 </v>
  <v type="int" >       15 </v>
  <v type="int" >       13 </v>
  <v type="int" >       16 </v>
  <v type="int" >        5 </v>
  <v type="int" >        4 </v>
  <v type="int" >       12 </v>
  <v type="int" >       10 </v>
  <v type="int" >        8 </v>
  <v type="int" >        2 </v>
 </varray>
 <kpoints>
  <generation param="Monkhorst-Pack">
   <v type="int" name="divisions">       4        4        4 </v>
   <v name="usershift">      0.00000000       0.00000000       0.00000000 </v>
   <v name="genvec1">      0.25000000       0.00000000       0.00000000 </v>
   <v name="genvec2">      0.00000000       0.25000000       0.00000000 </v>
   <v name="genvec3">      0.00000000       0.00000000       0.25000000 </v>
   <v name="shift">      0.50000000       0.50000000       0.50000000 </v>
  </generation>
  <varray name="kpointlist" >
   <v>       0.12500000       0.12500000       0.12500000 </v>
   <v>       0.37500000       0.12500000       0.12500000 </v>
   <v>       0.12500000       0.37500000       0.12500000 </v>
   <v>       0.37500000       0.37500000       0.12500000 </v>
   <v>       0.12500000       0.12500000       0.37500000 </v>
   <v>       0.37500000       0.12500000       0.37500000 </v>
   <v>       0.12500000       0.37500000       0.37500000 </v>
   <v>       0.37500000       0.37500000       0.37500000 </v>
  </varray>
  <varray name="weights" >
   <v>       0.12500000 </v>
   <v>       0.12500000 </v>
   <v>       0.12500000 </v>
   <v>       0.12500000 </v>
   <v>       0.12500000 </v>
   <v>       0.12500000 </v>
   <v>       0.12500000 </v>
   <v>       0.12500000 </v>
  </varray>
  <varray name="tetrahedronlist"  type="int" >
   <v type="int" >        2        1        2        4        5 </v>
   <v type="int" >        2        1        3        4        5 </v>
   <v type="int" >        2        3        4        5        7 </v>
   <v type="int" >        2        2        4        5        6 </v>
   <v type="int" >        2        4        5        6        8 </v>
   <v type="int" >        2        4        5        7        8 </v>
   <v type="int" >        2        2        2        4        6 </v>
   <v type="int" >        2        2        4        4        6 </v>
   <v type="int" >        2        4        4        6        8 </v>
   <v type="int" >        2        2        4        6        6 </v>
   <v type="int" >        2        4        6        6        8 </v>
   <v type="int" >        2        4        6        8        8 </v>
   <v type="int" >        2        1        2        3        6 </v>
   <v type="int" >        2        2        3        4        6 </v>
   <v type="int" >        2        3        4        6        8 </v>
   <v type="int" >        2        1        3        5        6 </v>
   <v type="int" >        2        3        5        6        7 </v>
   <v type="int" >        2        3        6        7        8 </v>
   <v type="int" >        2        1        1        3        5 </v>
   <v type="int" >        2        1        3        3        5 </v>
   <v type="int" >        2        3        3        5        7 </v>
   <v type="int" >        2        1        3        5        5 </v>
   <v type="int" >        2        3        5        5        7 </v>
   <v type="int" >        2        3        5        7        7 </v>
   <v type="int" >        2        3        4        4        7 </v>
   <v type="int" >        2        3        3        4        7 </v>
   <v type="int" >        2        3        4        7        7 </v>
   <v type="int" >        2        4        4        7        8 </v>
   <v type="int" >        2        4        7        8        8 </v>
   <v type="int" >        2        4        7        7        8 </v>
   <v type="int" >        4        4        4        4        8 </v>
   <v type="int" >        4        4        4        8        8 </v>
   <v type="int" >        4        4        8        8        8 </v>
   <v type="int" >        2        3        3        4        8 </v>
   <v type="int" >        2        3        4        4        8 </v>
   <v type="int" >        2        3        4        8        8 </v>
   <v type="int" >        2        3        3        7        8 </v>
   <v type="int" >        2        3        7        7        8 </v>
   <v type="int" >        2        3        7        8        8 </v>
   <v type="int" >        4        3        3        3        7 </v>
   <v type="int" >        4        3        3        7        7 </v>
   <v type="int" >        4        3        7        7        7 </v>
   <v type="int" >        2        2        3        4        7 </v>
   <v type="int" >        2        1        2        3        7 </v>
   <v type="int" >        2        1        2        5        7 </v>
   <v type="int" >        2        2        4        7        8 </v>
   <v type="int" >        2        2        6        7        8 </v>
   <v type="int" >        2        2        5        6        7 </v>
   <v type="int" >        2        2        4        4        8 </v>
   <v type="int" >        2        2        2        4        8 </v>
   <v type="int" >        2        2        2        6        8 </v>
   <v type="int" >        2        2        4        8        8 </v>
   <v type="int" >        2        2        6        8        8 </v>
   <v type="int" >        2        2        6        6        8 </v>
   <v type="int" >        2        1        3        4        8 </v>
   <v type="int" >        2        1        2        4        8 </v>
   <v type="int" >        2        1        2        6        8 </v>
   <v type="int" >        2        1        3        7        8 </v>
   <v type="int" >        2        1        5        7        8 </v>
   <v type="int" >        2        1        5        6        8 </v>
   <v type="int" >        2        1        3        3        7 </v>
   <v type="int" >        2        1        1        3        7 </v>
   <v type="int" >        2        1        1        5        7 </v>
   <v type="int" >        2        1        3        7        7 </v>
   <v type="int" >        2        1        5        7        7 </v>
   <v type="int" >        2        1        5        5        7 </v>
   <v type="int" >        2        1        2        2        5 </v>
   <v type="int" >        2        1        1        2        5 </v>
   <v type="int" >        2        1        2        5        5 </v>
   <v type="int" >        2        2        2        5        6 </v>
   <v type="int" >        2        2        5        6        6 </v>
   <v type="int" >        2        2        5        5        6 </v>
   <v type="int" >        4        2        2        2        6 </v>
   <v type="int" >        4        2        2        6        6 </v>
   <v type="int" >        4        2        6        6        6 </v>
   <v type="int" >        2        1        1        2        6 </v>
   <v type="int" >        2        1        2        2        6 </v>
   <v type="int" >        2        1        2        6        6 </v>
   <v type="int" >        2        1        1        5        6 </v>
   <v type="int" >        2        1        5        5        6 </v>
   <v type="int" >        2        1        5        6        6 </v>
   <v type="int" >        4        1        1        1        5 </v>
   <v type="int" >        4        1        1        5        5 </v>
   <v type="int" >        4        1        5        5        5 </v>
   <v type="int" >        2        5        5        6        8 </v>
   <v type="int" >        2        5        5        7        8 </v>
   <v type="int" >        2        5        7        7        8 </v>
   <v type="int" >        2        5        6        6        8 </v>
   <v type="int" >        2        5        6        8        8 </v>
   <v type="int" >        2        5        7        8        8 </v>
   <v type="int" >        4        6        6        6        8 </v>
   <v type="int" >        4        6        6        8        8 </v>
   <v type="int" >        4        6        8        8        8 </v>
   <v type="int" >        2        5        6        6        7 </v>
   <v type="int" >        2        6        6        7        8 </v>
   <v type="int" >        2        6        7        8        8 </v>
   <v type="int" >        2        5        5        6        7 </v>
   <v type="int" >        2        5        6        7        7 </v>
   <v type="int" >        2        6        7        7        8 </v>
   <v type="int" >        4        5        5        5        7 </v>
   <v type="int" >        4        5        5        7        7 </v>
   <v type="int" >        4        5        7        7        7 </v>
   <v type="int" >        4        7        7        8        8 </v>
   <v type="int" >        4        7        7        7        8 </v>
   <v type="int" >        4        7        8        8        8 </v>
   <v type="int" >        6        8        8        8        8 </v>
   <v type="int" >        6        7        7        7        7 </v>
   <v type="int" >        4        5        5        6        6 </v>
   <v type="int" >        4        5        5        5        6 </v>
   <v type="int" >        4        5        6        6        6 </v>
   <v type="int" >        6        6        6        6        6 </v>
   <v type="int" >        6        5        5        5        5 </v>
   <v type="int" >        2        1        1        2        4 </v>
   <v type="int" >        2        1        1        3        4 </v>
   <v type="int" >        2        1        3        3        4 </v>
   <v type="int" >        2        1        2        2        4 </v>
   <v type="int" >        2        1        2        4        4 </v>
   <v type="int" >        2        1        3        4        4 </v>
   <v type="int" >        4        2        2        2        4 </v>
   <v type="int" >        4        2        2        4        4 </v>
   <v type="int" >        4        2        4        4        4 </v>
   <v type="int" >        2        1        2        2        3 </v>
   <v type="int" >        2        2        2        3        4 </v>
   <v type="int" >        2        2        3        4        4 </v>
   <v type="int" >        2        1        1        2        3 </v>
   <v type="int" >        2        1        2        3        3 </v>
   <v type="int" >        2        2        3        3        4 </v>
   <v type="int" >        4        1        1        1        3 </v>
   <v type="int" >        4        1        1        3        3 </v>
   <v type="int" >        4        1        3        3        3 </v>
   <v type="int" >        4        3        3        4        4 </v>
   <v type="int" >        4        3        3        3        4 </v>
   <v type="int" >        4        3        4        4        4 </v>
   <v type="int" >        6        4        4        4        4 </v>
   <v type="int" >        6        3        3        3        3 </v>
   <v type="int" >        4        1        1        2        2 </v>
   <v type="int" >        4        1        1        1        2 </v>
   <v type="int" >        4        1        2        2        2 </v>
   <v type="int" >        6        2        2        2        2 </v>
   <v type="int" >        6        1        1        1        1 </v>
  </varray>
  <i name="volumeweight">      0.00260417 </i>
 </kpoints>
 <parameters>
  <separator name="general" >
   <i type="string" name="SYSTEM">unknown system</i>
   <i type="logical" name="LCOMPAT"> F  </i>
  </separator>
  <separator name="electronic" >
   <i type="string" name="PREC">accura</i>
   <i name="ENMAX">    420.00000000</i>
   <i name="ENAUG">    628.94500000</i>
   <i name="EDIFF">      0.00002000</i>
   <i type="int" name="IALGO">    68</i>
   <i type="int" name="IWAVPR">    11</i>
   <i type="int" name="NBANDS">    48</i>
   <i name="NELECT">     76.00000000</i>
   <i type="int" name="TURBO">     0</i>
   <i type="int" name="IRESTART">     0</i>
   <i type="int" name="NREBOOT">     0</i>
   <i type="int" name="NMIN">     0</i>
   <i name="EREF">      0.00000000</i>
   <separator name="electronic smearing" >
    <i type="int" name="ISMEAR">    -5</i>
    <i name="SIGMA">      0.20000000</i>
    <i name="KSPACING">      0.50000000</i>
    <i type="logical" name="KGAMMA"> T  </i>
   </separator>
   <separator name="electronic projectors" >
    <i type="logical" name="LREAL"> T  </i>
    <v name="ROPT">     -0.00025000     -0.00025000     -0.00025000</v>
    <i type="int" name="LMAXPAW">  -100</i>
    <i type="int" name="LMAXMIX">     2</i>
    <i type="logical" name="NLSPLINE"> F  </i>
   </separator>
   <separator name="electronic startup" >
    <i type="int" name="ISTART">     0</i>
    <i type="int" name="ICHARG">     2</i>
    <i type="int" name="INIWAV">     1</i>
   </separator>
   <separator name="electronic spin" >
    <i type="int" name="ISPIN">     1</i>
    <i type="logical" name="LNONCOLLINEAR"> F  </i>
    <v name="MAGMOM">      1.00000000      1.00000000      1.00000000      1.00000000      1.00000000      1.00000000      1.00000000      1.00000000      1.00000000      1.00000000      1.00000000      1.00000000      1.00000000      1.00000000      1.00000000      1.00000000</v>
    <i name="NUPDOWN">     -1.00000000</i>
    <i type="logical" name="LSORBIT"> F  </i>
    <v name="SAXIS">      0.00000000      0.00000000      1.00000000</v>
    <i type="logical" name="LSPIRAL"> F  </i>
    <v name="QSPIRAL">      0.00000000      0.00000000      0.00000000</v>
    <i type="logical" name="LZEROZ"> F  </i>
   </separator>
   <separator name="electronic exchange-correlation" >
    <i type="logical" name="LASPH"> F  </i>
    <i type="logical" name="LMETAGGA"> F  </i>
   </separator>
   <separator name="electronic convergence" >
    <i type="int" name="NELM">   100</i>
    <i type="int" name="NELMDL">    -5</i>
    <i type="int" name="NELMIN">     2</i>
    <i name="ENINI">    420.00000000</i>
    <separator name="electronic convergence detail" >
     <i type="logical" name="LDIAG"> T  </i>
     <i type="logical" name="LSUBROT"> F  </i>
     <i name="WEIMIN">      0.00100000</i>
     <i name="EBREAK">      0.00000010</i>
     <i name="DEPER">      0.30000000</i>
     <i type="int" name="NRMM">     4</i>
     <i name="TIME">      0.40000000</i>
    </separator>
   </separator>
   <separator name="electronic mixer" >
    <i name="AMIX">      0.40000000</i>
    <i name="BMIX">      1.00000000</i>
    <i name="AMIN">      0.10000000</i>
    <i name="AMIX_MAG">      1.60000000</i>
    <i name="BMIX_MAG">      1.00000000</i>
    <separator name="electronic mixer details" >
     <i type="int" name="IMIX">     4</i>
     <i type="logical" name="MIXFIRST"> F  </i>
     <i type="int" name="MAXMIX">   -45</i>
     <i name="WC">    100.00000000</i>
     <i type="int" name="INIMIX">     1</i>
     <i type="int" name="MIXPRE">     1</i>
     <i type="int" name="MREMOVE">     5</i>
    </separator>
   </separator>
   <separator name="electronic dipolcorrection" >
    <i type="logical" name="LDIPOL"> F  </i>
    <i type="logical" name="LMONO"> F  </i>
    <i type="int" name="IDIPOL">     0</i>
    <i name="EPSILON">      1.00000000</i>
    <v name="DIPOL">   -100.00000000   -100.00000000   -100.00000000</v>
    <i name="EFIELD">      0.00000000</i>
   </separator>
  </separator>
  <separator name="grids" >
   <i type="int" name="NGX">    50</i>
   <i type="int" name="NGY">    48</i>
   <i type="int" name="NGZ">    40</i>
   <i type="int" name="NGXF">   100</i>
   <i type="int" name="NGYF">    96</i>
   <i type="int" name="NGZF">    80</i>
   <i type="logical" name="ADDGRID"> F  </i>
  </separator>
  <separator name="ionic" >
   <i type="int" name="NSW">   100</i>
   <i type="int" name="IBRION">     2</i>
   <i type="int" name="MDALGO">     0</i>
   <i type="int" name="ISIF">     3</i>
   <i name="PSTRESS">      0.00000000</i>
   <i name="EDIFFG">      0.00020000</i>
   <i type="int" name="NFREE">     1</i>
   <i name="POTIM">      0.50000000</i>
   <i name="SMASS">     -3.00000000</i>
   <i name="SCALEE">      1.00000000</i>
  </separator>
  <separator name="ionic md" >
   <i name="TEBEG">      0.00010000</i>
   <i name="TEEND">      0.00010000</i>
   <i type="int" name="NBLOCK">     1</i>
   <i type="int" name="KBLOCK">   100</i>
   <i type="int" name="NPACO">   256</i>
   <i name="APACO">     16.00000000</i>
  </separator>
  <separator name="symmetry" >
   <i type="int" name="ISYM">     2</i>
   <i name="SYMPREC">      0.00001000</i>
  </separator>
  <separator name="dos" >
   <i type="int" name="LORBIT">     0</i>
   <v name="RWIGS">     -1.00000000     -1.00000000     -1.00000000</v>
   <i type="int" name="NEDOS">   301</i>
   <i name="EMIN">     10.00000000</i>
   <i name="EMAX">    -10.00000000</i>
   <i name="EFERMI">      0.00000000</i>
  </separator>
  <separator name="writing" >
   <i type="int" name="NWRITE">     2</i>
   <i type="logical" name="LWAVE"> F  </i>
   <i type="logical" name="LDOWNSAMPLE"> F  </i>
   <i type="logical" name="LCHARG"> F  </i>
   <i type="logical" name="LPARD"> F  </i>
   <i type="logical" name="LVTOT"> F  </i>
   <i type="logical" name="LVHAR"> F  </i>
   <i type="logical" name="LELF"> F  </i>
   <i type="logical" name="LOPTICS"> F  </i>
   <v name="STM">      0.00000000      0.00000000      0.00000000      0.00000000      0.00000000      0.00000000      0.00000000</v>
  </separator>
  <separator name="performance" >
   <i type="int" name="NPAR">     4</i>
   <i type="int" name="NSIM">     4</i>
   <i type="int" name="NBLK">    -1</i>
   <i type="logical" name="LPLANE"> T  </i>
   <i type="logical" name="LSCALAPACK"> T  </i>
   <i type="logical" name="LSCAAWARE"> F  </i>
   <i type="logical" name="LSCALU"> F  </i>
   <i type="logical" name="LASYNC"> F  </i>
   <i type="logical" name="LORBITALREAL"> F  </i>
  </separator>
  <separator name="miscellaneous" >
   <i type="int" name="IDIOT">     3</i>
   <i type="int" name="ISPECIAL">     0</i>
   <i type="logical" name="LMUSIC"> F  </i>
   <v name="POMASS">     30.97400000     32.06600000      7.01000000</v>
   <v name="DARWINR">      0.00000000      0.00000000      0.00000000</v>
   <v name="DARWINV">      1.00000000      1.00000000      1.00000000</v>
   <i type="logical" name="LCORR"> T  </i>
  </separator>
  <i type="logical" name="GGA_COMPAT"> T  </i>
  <i type="logical" name="LBERRY"> F  </i>
  <i type="int" name="ICORELEVEL">     0</i>
  <i type="logical" name="LDAU"> F  </i>
  <i type="int" name="I_CONSTRAINED_M">     0</i>
  <separator name="electronic exchange-correlation" >
   <i type="string" name="GGA">--</i>
   <i type="int" name="VOSKOWN">     0</i>
   <i type="logical" name="LHFCALC"> F  </i>
   <i type="string" name="PRECFOCK"></i>
   <i type="logical" name="LSYMGRAD"> F  </i>
   <i type="logical" name="LHFONE"> F  </i>
   <i type="logical" name="LRHFCALC"> F  </i>
   <i type="logical" name="LTHOMAS"> F  </i>
   <i type="logical" name="LMODELHF"> F  </i>
   <i name="ENCUT4O">     -1.00000000</i>
   <i type="int" name="EXXOEP">     0</i>
   <i type="int" name="FOURORBIT">     0</i>
   <i name="AEXX">      0.00000000</i>
   <i name="HFALPHA">      0.00000000</i>
   <i name="MCALPHA">      0.00000000</i>
   <i name="ALDAX">      1.00000000</i>
   <i name="AGGAX">      1.00000000</i>
   <i name="ALDAC">      1.00000000</i>
   <i name="AGGAC">      1.00000000</i>
   <i type="int" name="NKREDX">     1</i>
   <i type="int" name="NKREDY">     1</i>
   <i type="int" name="NKREDZ">     1</i>
   <i type="logical" name="SHIFTRED"> F  </i>
   <i type="logical" name="ODDONLY"> F  </i>
   <i type="logical" name="EVENONLY"> F  </i>
   <i type="int" name="LMAXFOCK">     0</i>
   <i type="int" name="NMAXFOCKAE">     0</i>
   <i type="logical" name="LFOCKAEDFT"> F  </i>
   <i name="HFSCREEN">      0.00000000</i>
   <i name="HFSCREENC">      0.00000000</i>
   <i type="int" name="NBANDSGWLOW">     0</i>
  </separator>
  <separator name="vdW DFT" >
   <i type="logical" name="LUSE_VDW"> F  </i>
   <i name="Zab_VDW">     -0.84910000</i>
   <i name="PARAM1">      0.12340000</i>
   <i name="PARAM2">      1.00000000</i>
   <i name="PARAM3">      0.00000000</i>
  </separator>
  <separator name="model GW" >
   <i type="int" name="MODEL_GW">     0</i>
   <i name="MODEL_EPS0">     10.39973361</i>
   <i name="MODEL_ALPHA">      1.00000000</i>
  </separator>
  <separator name="linear response parameters" >
   <i type="logical" name="LEPSILON"> F  </i>
   <i type="logical" name="LRPA"> F  </i>
   <i type="logical" name="LNABLA"> F  </i>
   <i type="logical" name="LVEL"> F  </i>
   <i type="int" name="KINTER">     0</i>
   <i name="CSHIFT">      0.10000000</i>
   <i name="OMEGAMAX">     -1.00000000</i>
   <i name="DEG_THRESHOLD">      0.00200000</i>
   <i name="RTIME">     -0.10000000</i>
   <i name="WPLASMAI">      0.00000000</i>
   <v name="DFIELD">      0.00000000      0.00000000      0.00000000</v>
   <v name="WPLASMA">      0.00000000      0.00000000      0.00000000      0.00000000      0.00000000      0.00000000      0.00000000      0.00000000      0.00000000</v>
  </separator>
  <separator name="orbital magnetization" >
   <i type="logical" name="NUCIND"> F  </i>
   <v name="MAGPOS">      0.00000000      0.00000000      0.00000000</v>
   <i type="logical" name="LNICSALL"> T  </i>
   <i type="logical" name="ORBITALMAG"> F  </i>
   <i type="logical" name="LMAGBLOCH"> F  </i>
   <i type="logical" name="LCHIMAG"> F  </i>
   <i type="logical" name="LGAUGE"> T  </i>
   <i type="int" name="MAGATOM">     0</i>
   <v name="MAGDIPOL">      0.00000000      0.00000000      0.00000000</v>
   <v name="AVECCONST">      0.00000000      0.00000000      0.00000000</v>
  </separator>
  <separator name="response functions" >
   <i type="logical" name="LADDER"> F  </i>
   <i type="logical" name="LRPAFORCE"> F  </i>
   <i type="logical" name="LFXC"> F  </i>
   <i type="logical" name="LHARTREE"> T  </i>
   <i type="int" name="IBSE">     0</i>
   <v type="int" name="KPOINT">    -1     0     0     0</v>
   <i type="logical" name="LTCTE"> F  </i>
   <i type="logical" name="LTETE"> F  </i>
   <i type="logical" name="LTRIPLET"> F  </i>
   <i type="logical" name="LFXCEPS"> F  </i>
   <i type="logical" name="LFXHEG"> F  </i>
   <i type="int" name="NATURALO">     2</i>
   <i type="logical" name="L2ORDER"> F  </i>
   <i type="logical" name="LMP2LT"> F  </i>
   <i type="logical" name="LUSEW"> F  </i>
   <i name="ENCUTGW">     -2.00000000</i>
   <i name="ENCUTGWSOFT">     -2.00000000</i>
   <i name="ENCUTLF">     -1.00000000</i>
   <i type="int" name="LMAXMP2">    -1</i>
   <i name="SCISSOR">      0.00000000</i>
   <i type="int" name="NOMEGA">     0</i>
   <i type="int" name="NOMEGAR">     0</i>
   <i type="int" name="NBANDSGW">    -1</i>
   <i type="int" name="NBANDSO">    -1</i>
   <i type="int" name="NBANDSV">    -1</i>
   <i type="int" name="NELM">   100</i>
   <i type="int" name="NELMHF">     1</i>
   <i type="int" name="DIM">     3</i>
   <i type="int" name="ANTIRES">     0</i>
   <i name="OMEGAMAX">    -30.00000000</i>
   <i name="OMEGAMIN">    -30.00000000</i>
   <i name="OMEGATL">   -200.00000000</i>
   <i type="int" name="OMEGAGRID">   140</i>
   <i name="CSHIFT">     -0.10000000</i>
   <i type="logical" name="SELFENERGY"> F  </i>
   <i type="logical" name="LSPECTRAL"> F  </i>
   <i type="logical" name="LSPECTRALGW"> F  </i>
   <i type="logical" name="LSINGLES"> F  </i>
   <i type="logical" name="LFERMIGW"> F  </i>
   <i type="logical" name="ODDONLYGW"> F  </i>
   <i type="logical" name="EVENONLYGW"> F  </i>
   <i type="int" name="NKREDLFX">     1</i>
   <i type="int" name="NKREDLFY">     1</i>
   <i type="int" name="NKREDLFZ">     1</i>
   <i type="int" name="MAXMEM">  2800</i>
   <i type="int" name="TELESCOPE">     0</i>
   <i type="int" name="TAUPAR">     1</i>
   <i type="int" name="OMEGAPAR">    -1</i>
   <i name="LAMBDA">      1.00000000</i>
  </separator>
  <separator name="External order field" >
   <i name="OFIELD_KAPPA">      0.00000000</i>
   <v name="OFIELD_K">      0.00000000      0.00000000      0.00000000</v>
   <i name="OFIELD_Q6_NEAR">      0.00000000</i>
   <i name="OFIELD_Q6_FAR">      0.00000000</i>
   <i name="OFIELD_A">      0.00000000</i>
  </separator>
 </parameters>
 <atominfo>
  <atoms>      16 </atoms>
  <types>       3 </types>
  <array name="atoms" >
   <dimension dim="1">ion</dimension>
   <field type="string">element</field>
   <field type="int">atomtype</field>
   <set>
    <rc><c>P </c><c>   1</c></rc>
    <rc><c>P </c><c>   1</c></rc>
    <rc><c>S </c><c>   2</c></rc>
    <rc><c>S </c><c>   2</c></rc>
    <rc><c>S </c><c>   2</c></rc>
    <rc><c>S </c><c>   2</c></rc>
    <rc><c>S </c><c>   2</c></rc>
    <rc><c>S </c><c>   2</c></rc>
    <rc><c>S </c><c>   2</c></rc>
    <rc><c>S </c><c>   2</c></rc>
    <rc><c>Li</c><c>   3</c></rc>
    <rc><c>Li</c><c>   3</c></rc>
    <rc><c>Li</c><c>   3</c></rc>
    <rc><c>Li</c><c>   3</c></rc>
    <rc><c>Li</c><c>   3</c></rc>
    <rc><c>Li</c><c>   3</c></rc>
   </set>
  </array>
  <array name="atomtypes" >
   <dimension dim="1">type</dimension>
   <field type="int">atomspertype</field>
   <field type="string">element</field>
   <field>mass</field>
   <field>valence</field>
   <field type="string">pseudopotential</field>
   <set>
    <rc><c>   2</c><c>P </c><c>     30.97400000</c><c>      5.00000000</c><c>  PAW P 26Mar2009                       </c></rc>
    <rc><c>   8</c><c>S </c><c>     32.06600000</c><c>      6.00000000</c><c>  PAW S 27Mar2009                       </c></rc>
    <rc><c>   6</c><c>Li</c><c>      7.01000000</c><c>      3.00000000</c><c>  PAW Li_sv 10Sep2004                   </c></rc>
   </set>
  </array>
 </atominfo>
 <structure name="initialpos" >
  <crystal>
   <varray name="basis" >
    <v>       7.27646029       0.00000000       0.00000000 </v>
    <v>       0.00000000       6.48100762       0.00000000 </v>
    <v>       0.00000000       0.00000000       5.88068953 </v>
   </varray>
   <i name="volume">    277.32622950 </i>
   <varray name="rec_basis" >
    <v>       0.13742946       0.00000000       0.00000000 </v>
    <v>       0.00000000       0.15429700       0.00000000 </v>
    <v>       0.00000000       0.00000000       0.17004809 </v>
   </varray>
  </crystal>
  <varray name="positions" >
   <v>       0.00000000       0.75187285       0.92093628 </v>
   <v>       0.50000000       0.24812715       0.42093628 </v>
   <v>       0.22332455       0.60171866       0.04126437 </v>
   <v>       0.27667545       0.39828134       0.54126437 </v>
   <v>       0.72332455       0.39828134       0.54126437 </v>
   <v>       0.77667545       0.60171866       0.04126437 </v>
   <v>       0.00000000       0.80528315       0.58006808 </v>
   <v>       0.50000000       0.19471685       0.08006808 </v>
   <v>       0.00000000       0.04259809       0.06756774 </v>
   <v>       0.50000000       0.95740191       0.56756774 </v>
   <v>       0.00000000       0.32041752       0.63419497 </v>
   <v>       0.50000000       0.67958248       0.13419497 </v>
   <v>       0.74071194       0.30894288       0.95170546 </v>
   <v>       0.75928806       0.69105712       0.45170546 </v>
   <v>       0.24071194       0.69105712       0.45170546 </v>
   <v>       0.25928806       0.30894288       0.95170546 </v>
  </varray>
 </structure>
 <calculation>
  <scstep>
   <time name="dav">    0.21    0.22</time>
   <time name="total">    0.22    0.25</time>
   <energy>
    <i name="alphaZ">     71.15431615 </i>
    <i name="ewald">  -2687.28258358 </i>
    <i name="hartreedc">   -669.16745765 </i>
    <i name="XCdc">    183.11289563 </i>
    <i name="pawpsdc">   2494.22442938 </i>
    <i name="pawaedc">  -2541.12215007 </i>
    <i name="eentropy">      0.00000000 </i>
    <i name="bandstr">   -115.40677610 </i>
    <i name="atom">   3769.08782378 </i>
    <i name="e_fr_energy">    504.60049754 </i>
    <i name="e_wo_entrp">    504.60049754 </i>
    <i name="e_0_energy">    504.60049754 </i>
   </energy>
  </scstep>
  <scstep>
   <time name="dav">    0.19    0.20</time>
   <time name="total">    0.20    0.20</time>
   <energy>
    <i name="e_fr_energy">     -3.52683394 </i>
    <i name="e_wo_entrp">     -3.52683394 </i>
    <i name="e_0_energy">     -3.52683394 </i>
   </energy>
  </scstep>
  <scstep>
   <time name="dav">    0.21    0.22</time>
   <time name="total">    0.22    0.22</time>
   <energy>
    <i name="e_fr_energy">    -66.55151036 </i>
    <i name="e_wo_entrp">    -66.55151036 </i>
    <i name="e_0_energy">    -66.55151036 </i>
   </energy>
  </scstep>
  <scstep>
   <time name="dav">    0.27    0.27</time>
   <time name="total">    0.27    0.27</time>
   <energy>
    <i name="e_fr_energy">    -74.95473136 </i>
    <i name="e_wo_entrp">    -74.95473136 </i>
    <i name="e_0_energy">    -74.95473136 </i>
   </energy>
  </scstep>
  <scstep>
   <time name="dav">    0.22    0.22</time>
   <time name="total">    0.24    0.24</time>
   <energy>
    <i name="e_fr_energy">    -75.80623755 </i>
    <i name="e_wo_entrp">    -75.80623755 </i>
    <i name="e_0_energy">    -75.80623755 </i>
   </energy>
  </scstep>
  <scstep>
   <time name="diag">    0.05    0.05</time>
   <time name="diis">    0.07    0.08</time>
   <time name="orth">    0.01    0.01</time>
   <time name="total">    0.15    0.17</time>
   <energy>
    <i name="e_fr_energy">    -72.83853535 </i>
    <i name="e_wo_entrp">    -72.83853535 </i>
    <i name="e_0_energy">    -72.83853535 </i>
   </energy>
  </scstep>
  <scstep>
   <time name="diag">    0.05    0.05</time>
   <time name="diis">    0.07    0.07</time>
   <time name="orth">    0.01    0.01</time>
   <time name="total">    0.15    0.15</time>
   <energy>
    <i name="e_fr_energy">    -72.33685493 </i>
    <i name="e_wo_entrp">    -72.33685493 </i>
    <i name="e_0_energy">    -72.33685493 </i>
   </energy>
  </scstep>
  <scstep>
   <time name="diag">    0.05    0.05</time>
   <time name="diis">    0.08    0.08</time>
   <time name="orth">    0.01    0.01</time>
   <time name="total">    0.16    0.16</time>
   <energy>
    <i name="e_fr_energy">    -72.25229233 </i>
    <i name="e_wo_entrp">    -72.25229233 </i>
    <i name="e_0_energy">    -72.25229233 </i>
   </energy>
  </scstep>
  <scstep>
   <time name="diag">    0.05    0.05</time>
   <time name="diis">    0.09    0.09</time>
   <time name="orth">    0.01    0.01</time>
   <time name="total">    0.17    0.17</time>
   <energy>
    <i name="e_fr_energy">    -72.24225443 </i>
    <i name="e_wo_entrp">    -72.24225443 </i>
    <i name="e_0_energy">    -72.24225443 </i>
   </energy>
  </scstep>
  <scstep>
   <time name="diag">    0.05    0.05</time>
   <time name="diis">    0.10    0.10</time>
   <time name="orth">    0.01    0.01</time>
   <time name="total">    0.17    0.17</time>
   <energy>
    <i name="e_fr_energy">    -72.24209167 </i>
    <i name="e_wo_entrp">    -72.24209167 </i>
    <i name="e_0_energy">    -72.24209167 </i>
   </energy>
  </scstep>
  <scstep>
   <time name="diag">    0.05    0.05</time>
   <time name="diis">    0.10    0.10</time>
   <time name="orth">    0.01    0.01</time>
   <time name="total">    0.18    0.18</time>
   <energy>
    <i name="e_fr_energy">    -72.24219079 </i>
    <i name="e_wo_entrp">    -72.24219079 </i>
    <i name="e_0_energy">    -72.24219079 </i>
   </energy>
  </scstep>
  <scstep>
   <time name="diag">    0.05    0.05</time>
   <time name="diis">    0.09    0.09</time>
   <time name="orth">    0.01    0.01</time>
   <time name="total">    0.17    0.17</time>
   <energy>
    <i name="e_fr_energy">    -72.24222797 </i>
    <i name="e_wo_entrp">    -72.24222797 </i>
    <i name="e_0_energy">    -72.24222797 </i>
   </energy>
  </scstep>
  <scstep>
   <time name="diag">    0.05    0.05</time>
   <time name="diis">    0.07    0.07</time>
   <time name="orth">    0.01    0.01</time>
   <time name="total">    0.15    0.15</time>
   <energy>
    <i name="e_fr_energy">    -72.24226033 </i>
    <i name="e_wo_entrp">    -72.24226033 </i>
    <i name="e_0_energy">    -72.24226033 </i>
   </energy>
  </scstep>
  <scstep>
   <time name="diag">    0.05    0.05</time>
   <time name="diis">    0.08    0.08</time>
   <time name="orth">    0.01    0.01</time>
   <time name="total">    0.15    0.15</time>
   <energy>
    <i name="e_fr_energy">    -72.24228007 </i>
    <i name="e_wo_entrp">    -72.24228007 </i>
    <i name="e_0_energy">    -72.24228007 </i>
   </energy>
  </scstep>
  <scstep>
   <time name="diag">    0.05    0.05</time>
   <time name="diis">    0.06    0.06</time>
   <time name="orth">    0.01    0.01</time>
   <time name="total">    0.13    0.13</time>
   <energy>
    <i name="alphaZ">     71.15431615 </i>
    <i name="ewald">  -2687.28258358 </i>
    <i name="hartreedc">   -708.27026561 </i>
    <i name="XCdc">    187.21462168 </i>
    <i name="pawpsdc">   7663.18439565 </i>
    <i name="pawaedc">  -7712.00028177 </i>
    <i name="eentropy">      0.00000000 </i>
    <i name="bandstr">   -655.33031185 </i>
    <i name="atom">   3769.08782378 </i>
    <i name="e_fr_energy">    -72.24228555 </i>
    <i name="e_wo_entrp">    -72.24228555 </i>
    <i name="e_0_energy">    -72.24228555 </i>
   </energy>
  </scstep>
  <structure>
   <crystal>
    <varray name="basis" >
     <v>       7.27646029       0.00000000       0.00000000 </v>
     <v>       0.00000000       6.48100762       0.00000000 </v>
     <v>       0.00000000       0.00000000       5.88068953 </v>
    </varray>
    <i name="volume">    277.32622950 </i>
    <varray name="rec_basis" >
     <v>       0.13742946       0.00000000       0.00000000 </v>
     <v>       0.00000000       0.15429700       0.00000000 </v>
     <v>       0.00000000       0.00000000       0.17004809 </v>
    </varray>
   </crystal>
   <varray name="positions" >
    <v>       0.00000000       0.75187285       0.92093628 </v>
    <v>       0.50000000       0.24812715       0.42093628 </v>
    <v>       0.22332455       0.60171866       0.04126437 </v>
    <v>       0.27667545       0.39828134       0.54126437 </v>
    <v>       0.72332455       0.39828134       0.54126437 </v>
    <v>       0.77667545       0.60171866       0.04126437 </v>
    <v>       0.00000000       0.80528315       0.58006808 </v>
    <v>       0.50000000       0.19471685       0.08006808 </v>
    <v>       0.00000000       0.04259809       0.06756774 </v>
    <v>       0.50000000       0.95740191       0.56756774 </v>
    <v>       0.00000000       0.32041752       0.63419497 </v>
    <v>       0.50000000       0.67958248       0.13419497 </v>
    <v>       0.74071194       0.30894288       0.95170546 </v>
    <v>       0.75928806       0.69105712       0.45170546 </v>
    <v>       0.24071194       0.69105712       0.45170546 </v>
    <v>       0.25928806       0.30894288       0.95170546 </v>
   </varray>
  </structure>
  <varray name="forces" >
   <v>       0.00000000       2.44249815       0.51927563 </v>
   <v>       0.00000000      -2.44249815       0.51927563 </v>
   <v>      -1.01662134       1.60192889       0.46160642 </v>
   <v>       1.01662134      -1.60192889       0.46160642 </v>
   <v>      -1.01662134      -1.60192889       0.46160642 </v>
   <v>       1.01662134       1.60192889       0.46160642 </v>
   <v>       0.00000000       0.60029576       1.08870317 </v>
   <v>       0.00000000      -0.60029576       1.08870317 </v>
   <v>       0.00000000       0.11495617      -0.38826526 </v>
   <v>       0.00000000      -0.11495617      -0.38826526 </v>
   <v>       0.00000000      -0.93330839      -0.01552491 </v>
   <v>       0.00000000       0.93330839      -0.01552491 </v>
   <v>       0.98958887      -1.85381250      -1.06370074 </v>
   <v>      -0.98958887       1.85381250      -1.06370074 </v>
   <v>       0.98958887       1.85381250      -1.06370074 </v>
   <v>      -0.98958887      -1.85381250      -1.06370074 </v>
  </varray>
  <varray name="stress" >
   <v>      99.72389455       0.00000000       0.00000000 </v>
   <v>       0.00000000      58.89587736       0.00000000 </v>
   <v>       0.00000000       0.00000000      17.63537461 </v>
  </varray>
  <energy>
   <i name="e_fr_energy">    -72.24228555 </i>
   <i name="e_wo_entrp">    -72.24228555 </i>
   <i name="e_0_energy">      0.00000000 </i>
  </energy>
  <time name="totalsc">    2.92    2.99</time>
 </calculation>
 <calculation>
  <scstep>
   <time name="dav">    0.17    0.17</time>
   <time name="total">    0.19    0.20</time>
   <energy>
    <i name="alphaZ">     65.01881887 </i>
    <i name="ewald">  -2622.70583531 </i>
    <i name="hartreedc">   -672.12586756 </i>
    <i name="XCdc">    181.39623346 </i>
    <i name="pawpsdc">   7663.56598192 </i>
    <i name="pawaedc">  -7712.38001377 </i>
    <i name="eentropy">      0.00000000 </i>
    <i name="bandstr">   -746.24553178 </i>
    <i name="atom">   3769.08782378 </i>
    <i name="e_fr_energy">    -74.38839038 </i>
    <i name="e_wo_entrp">    -74.38839038 </i>
    <i name="e_0_energy">    -74.38839038 </i>
   </energy>
  </scstep>
  <scstep>
   <time name="diag">    0.05    0.05</time>
   <time name="diis">    0.09    0.09</time>
   <time name="orth">    0.01    0.01</time>
   <time name="total">    0.16    0.16</time>
   <energy>
    <i name="e_fr_energy">    -74.50836183 </i>
    <i name="e_wo_entrp">    -74.50836183 </i>
    <i name="e_0_energy">    -74.50836183 </i>
   </energy>
  </scstep>
  <scstep>
   <time name="diag">    0.05    0.05</time>
   <time name="diis">    0.10    0.10</time>
   <time name="orth">    0.01    0.01</time>
   <time name="total">    0.17    0.17</time>
   <energy>
    <i name="e_fr_energy">    -74.41862905 </i>
    <i name="e_wo_entrp">    -74.41862905 </i>
    <i name="e_0_energy">    -74.41862905 </i>
   </energy>
  </scstep>
  <scstep>
   <time name="diag">    0.05    0.05</time>
   <time name="diis">    0.10    0.10</time>
   <time name="orth">    0.01    0.01</time>
   <time name="total">    0.17    0.17</time>
   <energy>
    <i name="e_fr_energy">    -74.38471480 </i>
    <i name="e_wo_entrp">    -74.38471480 </i>
    <i name="e_0_energy">    -74.38471480 </i>
   </energy>
  </scstep>
  <scstep>
   <time name="diag">    0.05    0.05</time>
   <time name="diis">    0.11    0.11</time>
   <time name="orth">    0.01    0.01</time>
   <time name="total">    0.18    0.18</time>
   <energy>
    <i name="e_fr_energy">    -74.39851253 </i>
    <i name="e_wo_entrp">    -74.39851253 </i>
    <i name="e_0_energy">    -74.39851253 </i>
   </energy>
  </scstep>
  <scstep>
   <time name="diag">    0.05    0.05</time>
   <time name="diis">    0.11    0.11</time>
   <time name="orth">    0.01    0.01</time>
   <time name="total">    0.18    0.18</time>
   <energy>
    <i name="e_fr_energy">    -74.40186721 </i>
    <i name="e_wo_entrp">    -74.40186721 </i>
    <i name="e_0_energy">    -74.40186721 </i>
   </energy>
  </scstep>
  <scstep>
   <time name="diag">    0.05    0.05</time>
   <time name="diis">    0.11    0.11</time>
   <time name="orth">    0.01    0.01</time>
   <time name="total">    0.19    0.19</time>
   <energy>
    <i name="e_fr_energy">    -74.40481924 </i>
    <i name="e_wo_entrp">    -74.40481924 </i>
    <i name="e_0_energy">    -74.40481924 </i>
   </energy>
  </scstep>
  <scstep>
   <time name="diag">    0.05    0.05</time>
   <time name="diis">    0.11    0.11</time>
   <time name="orth">    0.01    0.01</time>
   <time name="total">    0.18    0.18</time>
   <energy>
    <i name="e_fr_energy">    -74.40633470 </i>
    <i name="e_wo_entrp">    -74.40633470 </i>
    <i name="e_0_energy">    -74.40633470 </i>
   </energy>
  </scstep>
  <scstep>
   <time name="diag">    0.05    0.05</time>
   <time name="diis">    0.11    0.11</time>
   <time name="orth">    0.01    0.01</time>
   <time name="total">    0.19    0.19</time>
   <energy>
    <i name="e_fr_energy">    -74.40740460 </i>
    <i name="e_wo_entrp">    -74.40740460 </i>
    <i name="e_0_energy">    -74.40740460 </i>
   </energy>
  </scstep>
  <scstep>
   <time name="diag">    0.05    0.05</time>
   <time name="diis">    0.11    0.11</time>
   <time name="orth">    0.01    0.01</time>
   <time name="total">    0.18    0.18</time>
   <energy>
    <i name="e_fr_energy">    -74.40794203 </i>
    <i name="e_wo_entrp">    -74.40794203 </i>
    <i name="e_0_energy">    -74.40794203 </i>
   </energy>
  </scstep>
  <scstep>
   <time name="diag">    0.05    0.05</time>
   <time name="diis">    0.12    0.12</time>
   <time name="orth">    0.01    0.01</time>
   <time name="total">    0.20    0.20</time>
   <energy>
    <i name="e_fr_energy">    -74.40832249 </i>
    <i name="e_wo_entrp">    -74.40832249 </i>
    <i name="e_0_energy">    -74.40832249 </i>
   </energy>
  </scstep>
  <scstep>
   <time name="diag">    0.05    0.05</time>
   <time name="diis">    0.10    0.10</time>
   <time name="orth">    0.01    0.01</time>
   <time name="total">    0.18    0.18</time>
   <energy>
    <i name="e_fr_energy">    -74.40853386 </i>
    <i name="e_wo_entrp">    -74.40853386 </i>
    <i name="e_0_energy">    -74.40853386 </i>
   </energy>
  </scstep>
  <scstep>
   <time name="diag">    0.05    0.05</time>
   <time name="diis">    0.10    0.10</time>
   <time name="orth">    0.01    0.01</time>
   <time name="total">    0.18    0.18</time>
   <energy>
    <i name="e_fr_energy">    -74.40867265 </i>
    <i name="e_wo_entrp">    -74.40867265 </i>
    <i name="e_0_energy">    -74.40867265 </i>
   </energy>
  </scstep>
  <scstep>
   <time name="diag">    0.05    0.05</time>
   <time name="diis">    0.10    0.10</time>
   <time name="orth">    0.01    0.01</time>
   <time name="total">    0.17    0.17</time>
   <energy>
    <i name="e_fr_energy">    -74.40876319 </i>
    <i name="e_wo_entrp">    -74.40876319 </i>
    <i name="e_0_energy">    -74.40876319 </i>
   </energy>
  </scstep>
  <scstep>
   <time name="diag">    0.05    0.05</time>
   <time name="diis">    0.09    0.09</time>
   <time name="orth">    0.01    0.01</time>
   <time name="total">    0.17    0.17</time>
   <energy>
    <i name="e_fr_energy">    -74.40881372 </i>
    <i name="e_wo_entrp">    -74.40881372 </i>
    <i name="e_0_energy">    -74.40881372 </i>
   </energy>
  </scstep>
  <scstep>
   <time name="diag">    0.05    0.05</time>
   <time name="diis">    0.09    0.09</time>
   <time name="orth">    0.01    0.01</time>
   <time name="total">    0.16    0.16</time>
   <energy>
    <i name="e_fr_energy">    -74.40884544 </i>
    <i name="e_wo_entrp">    -74.40884544 </i>
    <i name="e_0_energy">    -74.40884544 </i>
   </energy>
  </scstep>
  <scstep>
   <time name="diag">    0.05    0.05</time>
   <time name="diis">    0.08    0.08</time>
   <time name="orth">    0.01    0.01</time>
   <time name="total">    0.14    0.14</time>
   <energy>
    <i name="alphaZ">     65.01881887 </i>
    <i name="ewald">  -2622.70583531 </i>
    <i name="hartreedc">   -721.39197319 </i>
    <i name="XCdc">    184.81532724 </i>
    <i name="pawpsdc">   7202.56514543 </i>
    <i name="pawaedc">  -7252.67965370 </i>
    <i name="eentropy">      0.00000000 </i>
    <i name="bandstr">   -699.11851256 </i>
    <i name="atom">   3769.08782378 </i>
    <i name="e_fr_energy">    -74.40885943 </i>
    <i name="e_wo_entrp">    -74.40885943 </i>
    <i name="e_0_energy">    -74.40885943 </i>
   </energy>
  </scstep>
  <structure>
   <crystal>
    <varray name="basis" >
     <v>       7.65517395       0.00000000       0.00000000 </v>
     <v>       0.00000000       6.68022122       0.00000000 </v>
     <v>       0.00000000       0.00000000       5.93481535 </v>
    </varray>
    <i name="volume">    303.49610396 </i>
    <varray name="rec_basis" >
     <v>       0.13063060       0.00000000       0.00000000 </v>
     <v>       0.00000000       0.14969564       0.00000000 </v>
     <v>       0.00000000       0.00000000       0.16849724 </v>
    </varray>
   </crystal>
   <varray name="positions" >
    <v>       0.00000000       0.77005407       0.92519620 </v>
    <v>       0.50000000       0.22994593       0.42519620 </v>
    <v>       0.21658438       0.61364293       0.04505119 </v>
    <v>       0.28341562       0.38635707       0.54505119 </v>
    <v>       0.71658438       0.38635707       0.54505119 </v>
    <v>       0.78341562       0.61364293       0.04505119 </v>
    <v>       0.00000000       0.80975157       0.58899933 </v>
    <v>       0.50000000       0.19024843       0.08899933 </v>
    <v>       0.00000000       0.04345378       0.06438258 </v>
    <v>       0.50000000       0.95654622       0.56438258 </v>
    <v>       0.00000000       0.31347025       0.63406761 </v>
    <v>       0.50000000       0.68652975       0.13406761 </v>
    <v>       0.74727288       0.29514366       0.94297931 </v>
    <v>       0.75272712       0.70485634       0.44297931 </v>
    <v>       0.24727288       0.70485634       0.44297931 </v>
    <v>       0.25272712       0.29514366       0.94297931 </v>
   </varray>
  </structure>
  <varray name="forces" >
   <v>       0.00000000       0.35704251       0.64870797 </v>
   <v>       0.00000000      -0.35704251       0.64870797 </v>
   <v>      -0.86951342       0.55824944      -0.06611226 </v>
   <v>       0.86951342      -0.55824944      -0.06611226 </v>
   <v>      -0.86951342      -0.55824944      -0.06611226 </v>
   <v>       0.86951342       0.55824944      -0.06611226 </v>
   <v>       0.00000000      -0.03506762       0.11677447 </v>
   <v>       0.00000000       0.03506762       0.11677447 </v>
   <v>       0.00000000       0.89511670       0.08344431 </v>
   <v>       0.00000000      -0.89511670       0.08344431 </v>
   <v>       0.00000000      -0.55527218      -0.38699382 </v>
   <v>       0.00000000       0.55527218      -0.38699382 </v>
   <v>       0.33076759      -0.54506654      -0.16485420 </v>
   <v>      -0.33076759       0.54506654      -0.16485420 </v>
   <v>       0.33076759       0.54506654      -0.16485420 </v>
   <v>      -0.33076759      -0.54506654      -0.16485420 </v>
  </varray>
  <varray name="stress" >
   <v>      -0.91535438       0.00000000       0.00000000 </v>
   <v>       0.00000000     -18.92603234       0.00000000 </v>
   <v>       0.00000000       0.00000000       2.62519453 </v>
  </varray>
  <energy>
   <i name="e_fr_energy">    -74.40885943 </i>
   <i name="e_wo_entrp">    -74.40885943 </i>
   <i name="e_0_energy">      0.00000000 </i>
  </energy>
  <time name="totalsc">    3.18    3.20</time>
 </calculation>
 <calculation>
  <scstep>
   <time name="dav">    0.16    0.16</time>
   <time name="total">    0.19    0.19</time>
   <energy>
    <i name="alphaZ">     63.19245986 </i>
    <i name="ewald">  -2597.34659185 </i>
    <i name="hartreedc">   -713.76606999 </i>
    <i name="XCdc">    183.01054511 </i>
    <i name="pawpsdc">   7202.86477196 </i>
    <i name="pawaedc">  -7252.97068832 </i>
    <i name="eentropy">      0.00000000 </i>
    <i name="bandstr">   -728.68291261 </i>
    <i name="atom">   3769.08782378 </i>
    <i name="e_fr_energy">    -74.61066207 </i>
    <i name="e_wo_entrp">    -74.61066207 </i>
    <i name="e_0_energy">    -74.61066207 </i>
   </energy>
  </scstep>
  <scstep>
   <time name="diag">    0.05    0.05</time>
   <time name="diis">    0.09    0.09</time>
   <time name="orth">    0.01    0.01</time>
   <time name="total">    0.16    0.16</time>
   <energy>
    <i name="e_fr_energy">    -74.55118528 </i>
    <i name="e_wo_entrp">    -74.55118528 </i>
    <i name="e_0_energy">    -74.55118528 </i>
   </energy>
  </scstep>
  <scstep>
   <time name="diag">    0.05    0.05</time>
   <time name="diis">    0.10    0.10</time>
   <time name="orth">    0.01    0.01</time>
   <time name="total">    0.17    0.17</time>
   <energy>
    <i name="e_fr_energy">    -74.52104401 </i>
    <i name="e_wo_entrp">    -74.52104401 </i>
    <i name="e_0_energy">    -74.52104401 </i>
   </energy>
  </scstep>
  <scstep>
   <time name="diag">    0.05    0.05</time>
   <time name="diis">    0.10    0.10</time>
   <time name="orth">    0.01    0.01</time>
   <time name="total">    0.18    0.18</time>
   <energy>
    <i name="e_fr_energy">    -74.51927908 </i>
    <i name="e_wo_entrp">    -74.51927908 </i>
    <i name="e_0_energy">    -74.51927908 </i>
   </energy>
  </scstep>
  <scstep>
   <time name="diag">    0.05    0.05</time>
   <time name="diis">    0.11    0.11</time>
   <time name="orth">    0.01    0.01</time>
   <time name="total">    0.19    0.19</time>
   <energy>
    <i name="e_fr_energy">    -74.51922796 </i>
    <i name="e_wo_entrp">    -74.51922796 </i>
    <i name="e_0_energy">    -74.51922796 </i>
   </energy>
  </scstep>
  <scstep>
   <time name="diag">    0.05    0.05</time>
   <time name="diis">    0.11    0.11</time>
   <time name="orth">    0.01    0.01</time>
   <time name="total">    0.18    0.18</time>
   <energy>
    <i name="e_fr_energy">    -74.51998587 </i>
    <i name="e_wo_entrp">    -74.51998587 </i>
    <i name="e_0_energy">    -74.51998587 </i>
   </energy>
  </scstep>
  <scstep>
   <time name="diag">    0.05    0.05</time>
   <time name="diis">    0.11    0.11</time>
   <time name="orth">    0.01    0.01</time>
   <time name="total">    0.18    0.18</time>
   <energy>
    <i name="e_fr_energy">    -74.52055388 </i>
    <i name="e_wo_entrp">    -74.52055388 </i>
    <i name="e_0_energy">    -74.52055388 </i>
   </energy>
  </scstep>
  <scstep>
   <time name="diag">    0.05    0.05</time>
   <time name="diis">    0.10    0.10</time>
   <time name="orth">    0.01    0.01</time>
   <time name="total">    0.18    0.18</time>
   <energy>
    <i name="e_fr_energy">    -74.52083827 </i>
    <i name="e_wo_entrp">    -74.52083827 </i>
    <i name="e_0_energy">    -74.52083827 </i>
   </energy>
  </scstep>
  <scstep>
   <time name="diag">    0.05    0.05</time>
   <time name="diis">    0.10    0.10</time>
   <time name="orth">    0.01    0.01</time>
   <time name="total">    0.18    0.18</time>
   <energy>
    <i name="e_fr_energy">    -74.52100451 </i>
    <i name="e_wo_entrp">    -74.52100451 </i>
    <i name="e_0_energy">    -74.52100451 </i>
   </energy>
  </scstep>
  <scstep>
   <time name="diag">    0.05    0.05</time>
   <time name="diis">    0.10    0.10</time>
   <time name="orth">    0.01    0.01</time>
   <time name="total">    0.17    0.17</time>
   <energy>
    <i name="e_fr_energy">    -74.52110066 </i>
    <i name="e_wo_entrp">    -74.52110066 </i>
    <i name="e_0_energy">    -74.52110066 </i>
   </energy>
  </scstep>
  <scstep>
   <time name="diag">    0.05    0.05</time>
   <time name="diis">    0.10    0.10</time>
   <time name="orth">    0.01    0.01</time>
   <time name="total">    0.17    0.17</time>
   <energy>
    <i name="e_fr_energy">    -74.52115869 </i>
    <i name="e_wo_entrp">    -74.52115869 </i>
    <i name="e_0_energy">    -74.52115869 </i>
   </energy>
  </scstep>
  <scstep>
   <time name="diag">    0.05    0.05</time>
   <time name="diis">    0.08    0.08</time>
   <time name="orth">    0.01    0.01</time>
   <time name="total">    0.16    0.16</time>
   <energy>
    <i name="e_fr_energy">    -74.52119207 </i>
    <i name="e_wo_entrp">    -74.52119207 </i>
    <i name="e_0_energy">    -74.52119207 </i>
   </energy>
  </scstep>
  <scstep>
   <time name="diag">    0.05    0.05</time>
   <time name="diis">    0.08    0.08</time>
   <time name="orth">    0.01    0.01</time>
   <time name="total">    0.15    0.15</time>
   <energy>
    <i name="e_fr_energy">    -74.52120871 </i>
    <i name="e_wo_entrp">    -74.52120871 </i>
    <i name="e_0_energy">    -74.52120871 </i>
   </energy>
  </scstep>
  <scstep>
   <time name="diag">    0.05    0.05</time>
   <time name="diis">    0.07    0.07</time>
   <time name="orth">    0.01    0.01</time>
   <time name="total">    0.13    0.13</time>
   <energy>
    <i name="alphaZ">     63.19245986 </i>
    <i name="ewald">  -2597.34659185 </i>
    <i name="hartreedc">   -730.66211103 </i>
    <i name="XCdc">    184.19804446 </i>
    <i name="pawpsdc">   7110.99444487 </i>
    <i name="pawaedc">  -7161.38954820 </i>
    <i name="eentropy">      0.00000000 </i>
    <i name="bandstr">   -712.59573712 </i>
    <i name="atom">   3769.08782378 </i>
    <i name="e_fr_energy">    -74.52121523 </i>
    <i name="e_wo_entrp">    -74.52121523 </i>
    <i name="e_0_energy">    -74.52121523 </i>
   </energy>
  </scstep>
  <structure>
   <crystal>
    <varray name="basis" >
     <v>       7.77798028       0.00000000       0.00000000 </v>
     <v>       0.00000000       6.74482067       0.00000000 </v>
     <v>       0.00000000       0.00000000       5.95236686 </v>
    </varray>
    <i name="volume">    312.26760688 </i>
    <varray name="rec_basis" >
     <v>       0.12856808       0.00000000       0.00000000 </v>
     <v>       0.00000000       0.14826191       0.00000000 </v>
     <v>       0.00000000       0.00000000       0.16800040 </v>
    </varray>
   </crystal>
   <varray name="positions" >
    <v>       0.00000000       0.77577392       0.92656497 </v>
    <v>       0.50000000       0.22422608       0.42656497 </v>
    <v>       0.21450687       0.61739433       0.04626795 </v>
    <v>       0.28549313       0.38260567       0.54626795 </v>
    <v>       0.71450687       0.38260567       0.54626795 </v>
    <v>       0.78549313       0.61739433       0.04626795 </v>
    <v>       0.00000000       0.81115735       0.59186908 </v>
    <v>       0.50000000       0.18884265       0.09186908 </v>
    <v>       0.00000000       0.04372299       0.06335914 </v>
    <v>       0.50000000       0.95627701       0.56335914 </v>
    <v>       0.00000000       0.31128463       0.63402669 </v>
    <v>       0.50000000       0.68871537       0.13402669 </v>
    <v>       0.74929516       0.29080240       0.94017547 </v>
    <v>       0.75070484       0.70919760       0.44017547 </v>
    <v>       0.24929516       0.70919760       0.44017547 </v>
    <v>       0.25070484       0.29080240       0.94017547 </v>
   </varray>
  </structure>
  <varray name="forces" >
   <v>       0.00000000      -0.34034439       0.62810886 </v>
   <v>       0.00000000       0.34034439       0.62810886 </v>
   <v>      -0.86564297       0.43243295      -0.17251862 </v>
   <v>       0.86564297      -0.43243295      -0.17251862 </v>
   <v>      -0.86564297      -0.43243295      -0.17251862 </v>
   <v>       0.86564297       0.43243295      -0.17251862 </v>
   <v>       0.00000000      -0.14538120      -0.13414353 </v>
   <v>       0.00000000       0.14538120      -0.13414353 </v>
   <v>       0.00000000       1.24066700       0.27038927 </v>
   <v>       0.00000000      -1.24066700       0.27038927 </v>
   <v>       0.00000000      -0.46928325      -0.46923657 </v>
   <v>       0.00000000       0.46928325      -0.46923657 </v>
   <v>       0.15427321      -0.33160492       0.02495960 </v>
   <v>      -0.15427321       0.33160492       0.02495960 </v>
   <v>       0.15427321       0.33160492       0.02495960 </v>
   <v>      -0.15427321      -0.33160492       0.02495960 </v>
  </varray>
  <varray name="stress" >
   <v>     -23.74381205       0.00000000       0.00000000 </v>
   <v>       0.00000000     -29.99598803       0.00000000 </v>
   <v>       0.00000000       0.00000000       0.15068200 </v>
  </varray>
  <energy>
   <i name="e_fr_energy">    -74.52121523 </i>
   <i name="e_wo_entrp">    -74.52121523 </i>
   <i name="e_0_energy">      0.00000000 </i>
  </energy>
  <time name="totalsc">    2.58    2.60</time>
 </calculation>
 <calculation>
  <scstep>
   <time name="dav">    0.17    0.17</time>
   <time name="total">    0.19    0.19</time>
   <energy>
    <i name="alphaZ">     64.30359563 </i>
    <i name="ewald">  -2615.83367151 </i>
    <i name="hartreedc">   -731.26486189 </i>
    <i name="XCdc">    185.43901166 </i>
    <i name="pawpsdc">   7110.97045555 </i>
    <i name="pawaedc">  -7161.36536879 </i>
    <i name="eentropy">      0.00000000 </i>
    <i name="bandstr">   -696.13975396 </i>
    <i name="atom">   3769.08782378 </i>
    <i name="e_fr_energy">    -74.80276953 </i>
    <i name="e_wo_entrp">    -74.80276953 </i>
    <i name="e_0_energy">    -74.80276953 </i>
   </energy>
  </scstep>
  <scstep>
   <time name="diag">    0.05    0.05</time>
   <time name="diis">    0.08    0.08</time>
   <time name="orth">    0.01    0.01</time>
   <time name="total">    0.16    0.16</time>
   <energy>
    <i name="e_fr_energy">    -75.00513302 </i>
    <i name="e_wo_entrp">    -75.00513302 </i>
    <i name="e_0_energy">    -75.00513302 </i>
   </energy>
  </scstep>
  <scstep>
   <time name="diag">    0.05    0.05</time>
   <time name="diis">    0.10    0.10</time>
   <time name="orth">    0.01    0.01</time>
   <time name="total">    0.18    0.18</time>
   <energy>
    <i name="e_fr_energy">    -74.95269894 </i>
    <i name="e_wo_entrp">    -74.95269894 </i>
    <i name="e_0_energy">    -74.95269894 </i>
   </energy>
  </scstep>
  <scstep>
   <time name="diag">    0.05    0.05</time>
   <time name="diis">    0.10    0.10</time>
   <time name="orth">    0.01    0.01</time>
   <time name="total">    0.18    0.18</time>
   <energy>
    <i name="e_fr_energy">    -74.94251406 </i>
    <i name="e_wo_entrp">    -74.94251406 </i>
    <i name="e_0_energy">    -74.94251406 </i>
   </energy>
  </scstep>
  <scstep>
   <time name="diag">    0.05    0.05</time>
   <time name="diis">    0.11    0.11</time>
   <time name="orth">    0.01    0.01</time>
   <time name="total">    0.18    0.18</time>
   <energy>
    <i name="e_fr_energy">    -74.94378779 </i>
    <i name="e_wo_entrp">    -74.94378779 </i>
    <i name="e_0_energy">    -74.94378779 </i>
   </energy>
  </scstep>
  <scstep>
   <time name="diag">    0.05    0.05</time>
   <time name="diis">    0.11    0.11</time>
   <time name="orth">    0.01    0.01</time>
   <time name="total">    0.18    0.19</time>
   <energy>
    <i name="e_fr_energy">    -74.94504014 </i>
    <i name="e_wo_entrp">    -74.94504014 </i>
    <i name="e_0_energy">    -74.94504014 </i>
   </energy>
  </scstep>
  <scstep>
   <time name="diag">    0.05    0.05</time>
   <time name="diis">    0.10    0.10</time>
   <time name="orth">    0.01    0.01</time>
   <time name="total">    0.18    0.18</time>
   <energy>
    <i name="e_fr_energy">    -74.94571904 </i>
    <i name="e_wo_entrp">    -74.94571904 </i>
    <i name="e_0_energy">    -74.94571904 </i>
   </energy>
  </scstep>
  <scstep>
   <time name="diag">    0.05    0.05</time>
   <time name="diis">    0.10    0.10</time>
   <time name="orth">    0.01    0.01</time>
   <time name="total">    0.17    0.17</time>
   <energy>
    <i name="e_fr_energy">    -74.94624173 </i>
    <i name="e_wo_entrp">    -74.94624173 </i>
    <i name="e_0_energy">    -74.94624173 </i>
   </energy>
  </scstep>
  <scstep>
   <time name="diag">    0.05    0.05</time>
   <time name="diis">    0.10    0.10</time>
   <time name="orth">    0.01    0.01</time>
   <time name="total">    0.17    0.18</time>
   <energy>
    <i name="e_fr_energy">    -74.94653604 </i>
    <i name="e_wo_entrp">    -74.94653604 </i>
    <i name="e_0_energy">    -74.94653604 </i>
   </energy>
  </scstep>
  <scstep>
   <time name="diag">    0.05    0.05</time>
   <time name="diis">    0.10    0.10</time>
   <time name="orth">    0.01    0.01</time>
   <time name="total">    0.17    0.17</time>
   <energy>
    <i name="e_fr_energy">    -74.94672436 </i>
    <i name="e_wo_entrp">    -74.94672436 </i>
    <i name="e_0_energy">    -74.94672436 </i>
   </energy>
  </scstep>
  <scstep>
   <time name="diag">    0.05    0.05</time>
   <time name="diis">    0.09    0.09</time>
   <time name="orth">    0.01    0.01</time>
   <time name="total">    0.17    0.17</time>
   <energy>
    <i name="e_fr_energy">    -74.94684281 </i>
    <i name="e_wo_entrp">    -74.94684281 </i>
    <i name="e_0_energy">    -74.94684281 </i>
   </energy>
  </scstep>
  <scstep>
   <time name="diag">    0.05    0.05</time>
   <time name="diis">    0.09    0.09</time>
   <time name="orth">    0.01    0.01</time>
   <time name="total">    0.17    0.17</time>
   <energy>
    <i name="e_fr_energy">    -74.94691353 </i>
    <i name="e_wo_entrp">    -74.94691353 </i>
    <i name="e_0_energy">    -74.94691353 </i>
   </energy>
  </scstep>
  <scstep>
   <time name="diag">    0.05    0.05</time>
   <time name="diis">    0.08    0.08</time>
   <time name="orth">    0.01    0.01</time>
   <time name="total">    0.16    0.16</time>
   <energy>
    <i name="e_fr_energy">    -74.94695744 </i>
    <i name="e_wo_entrp">    -74.94695744 </i>
    <i name="e_0_energy">    -74.94695744 </i>
   </energy>
  </scstep>
  <scstep>
   <time name="diag">    0.05    0.05</time>
   <time name="diis">    0.07    0.07</time>
   <time name="orth">    0.01    0.01</time>
   <time name="total">    0.15    0.15</time>
   <energy>
    <i name="e_fr_energy">    -74.94697984 </i>
    <i name="e_wo_entrp">    -74.94697984 </i>
    <i name="e_0_energy">    -74.94697984 </i>
   </energy>
  </scstep>
  <scstep>
   <time name="diag">    0.05    0.05</time>
   <time name="diis">    0.07    0.07</time>
   <time name="orth">    0.01    0.01</time>
   <time name="total">    0.13    0.13</time>
   <energy>
    <i name="alphaZ">     64.30359563 </i>
    <i name="ewald">  -2615.83367151 </i>
    <i name="hartreedc">   -721.12686595 </i>
    <i name="XCdc">    184.71737693 </i>
    <i name="pawpsdc">   7430.89756665 </i>
    <i name="pawaedc">  -7481.41849447 </i>
    <i name="eentropy">      0.00000000 </i>
    <i name="bandstr">   -705.57432337 </i>
    <i name="atom">   3769.08782378 </i>
    <i name="e_fr_energy">    -74.94699231 </i>
    <i name="e_wo_entrp">    -74.94699231 </i>
    <i name="e_0_energy">    -74.94699231 </i>
   </energy>
  </scstep>
  <structure>
   <crystal>
    <varray name="basis" >
     <v>       7.73375661       0.00000000       0.00000000 </v>
     <v>       0.00000000       6.65475350       0.00000000 </v>
     <v>       0.00000000       0.00000000       5.96258338 </v>
    </varray>
    <i name="volume">    306.87177006 </i>
    <varray name="rec_basis" >
     <v>       0.12930327       0.00000000       0.00000000 </v>
     <v>       0.00000000       0.15026853       0.00000000 </v>
     <v>       0.00000000       0.00000000       0.16771254 </v>
    </varray>
   </crystal>
   <varray name="positions" >
    <v>       0.00000000       0.77626059       0.93272753 </v>
    <v>       0.50000000       0.22373941       0.43272753 </v>
    <v>       0.20767826       0.62270723       0.04543838 </v>
    <v>       0.29232174       0.37729277       0.54543838 </v>
    <v>       0.70767826       0.37729277       0.54543838 </v>
    <v>       0.79232174       0.62270723       0.04543838 </v>
    <v>       0.00000000       0.81080676       0.59226643 </v>
    <v>       0.50000000       0.18919324       0.09226643 </v>
    <v>       0.00000000       0.05331734       0.06513813 </v>
    <v>       0.50000000       0.94668266       0.56513813 </v>
    <v>       0.00000000       0.30653389       0.62995481 </v>
    <v>       0.50000000       0.69346611       0.12995481 </v>
    <v>       0.75139581       0.28593994       0.93887153 </v>
    <v>       0.74860419       0.71406006       0.43887153 </v>
    <v>       0.25139581       0.71406006       0.43887153 </v>
    <v>       0.24860419       0.28593994       0.93887153 </v>
   </varray>
  </structure>
  <varray name="forces" >
   <v>       0.00000000       0.87215343      -0.43800374 </v>
   <v>       0.00000000      -0.87215343      -0.43800374 </v>
   <v>       0.27386134      -0.23043106       0.17798289 </v>
   <v>      -0.27386134       0.23043106       0.17798289 </v>
   <v>       0.27386134       0.23043106       0.17798289 </v>
   <v>      -0.27386134      -0.23043106       0.17798289 </v>
   <v>       0.00000000      -0.13803471       0.33795665 </v>
   <v>       0.00000000       0.13803471       0.33795665 </v>
   <v>       0.00000000       1.00086939       0.05103668 </v>
   <v>       0.00000000      -1.00086939       0.05103668 </v>
   <v>       0.00000000      -0.46157386      -0.49045633 </v>
   <v>       0.00000000       0.46157386      -0.49045633 </v>
   <v>       0.14654049      -0.25693329       0.09175047 </v>
   <v>      -0.14654049       0.25693329       0.09175047 </v>
   <v>       0.14654049       0.25693329       0.09175047 </v>
   <v>      -0.14654049      -0.25693329       0.09175047 </v>
  </varray>
  <varray name="stress" >
   <v>      11.85787027       0.00000000       0.00000000 </v>
   <v>       0.00000000     -25.51159870       0.00000000 </v>
   <v>       0.00000000       0.00000000      -7.55072685 </v>
  </varray>
  <energy>
   <i name="e_fr_energy">    -74.94699231 </i>
   <i name="e_wo_entrp">    -74.94699231 </i>
   <i name="e_0_energy">      0.00000000 </i>
  </energy>
  <time name="totalsc">    2.73    2.75</time>
 </calculation>
 <calculation>
  <scstep>
   <time name="dav">    0.18    0.18</time>
   <time name="total">    0.20    0.21</time>
   <energy>
    <i name="alphaZ">     64.58997972 </i>
    <i name="ewald">  -2619.60261655 </i>
    <i name="hartreedc">   -721.97568404 </i>
    <i name="XCdc">    185.04909386 </i>
    <i name="pawpsdc">   7430.88459279 </i>
    <i name="pawaedc">  -7481.40560547 </i>
    <i name="eentropy">      0.00000000 </i>
    <i name="bandstr">   -701.58430028 </i>
    <i name="atom">   3769.08782378 </i>
    <i name="e_fr_energy">    -74.95671619 </i>
    <i name="e_wo_entrp">    -74.95671619 </i>
    <i name="e_0_energy">    -74.95671619 </i>
   </energy>
  </scstep>
  <scstep>
   <time name="diag">    0.05    0.05</time>
   <time name="diis">    0.08    0.08</time>
   <time name="orth">    0.01    0.01</time>
   <time name="total">    0.16    0.16</time>
   <energy>
    <i name="e_fr_energy">    -74.96967080 </i>
    <i name="e_wo_entrp">    -74.96967080 </i>
    <i name="e_0_energy">    -74.96967080 </i>
   </energy>
  </scstep>
  <scstep>
   <time name="diag">    0.05    0.05</time>
   <time name="diis">    0.10    0.10</time>
   <time name="orth">    0.01    0.01</time>
   <time name="total">    0.18    0.18</time>
   <energy>
    <i name="e_fr_energy">    -74.96669009 </i>
    <i name="e_wo_entrp">    -74.96669009 </i>
    <i name="e_0_energy">    -74.96669009 </i>
   </energy>
  </scstep>
  <scstep>
   <time name="diag">    0.05    0.05</time>
   <time name="diis">    0.10    0.10</time>
   <time name="orth">    0.01    0.01</time>
   <time name="total">    0.17    0.17</time>
   <energy>
    <i name="e_fr_energy">    -74.96604050 </i>
    <i name="e_wo_entrp">    -74.96604050 </i>
    <i name="e_0_energy">    -74.96604050 </i>
   </energy>
  </scstep>
  <scstep>
   <time name="diag">    0.05    0.05</time>
   <time name="diis">    0.11    0.11</time>
   <time name="orth">    0.01    0.01</time>
   <time name="total">    0.18    0.18</time>
   <energy>
    <i name="e_fr_energy">    -74.96615751 </i>
    <i name="e_wo_entrp">    -74.96615751 </i>
    <i name="e_0_energy">    -74.96615751 </i>
   </energy>
  </scstep>
  <scstep>
   <time name="diag">    0.05    0.05</time>
   <time name="diis">    0.10    0.10</time>
   <time name="orth">    0.01    0.01</time>
   <time name="total">    0.18    0.18</time>
   <energy>
    <i name="e_fr_energy">    -74.96628259 </i>
    <i name="e_wo_entrp">    -74.96628259 </i>
    <i name="e_0_energy">    -74.96628259 </i>
   </energy>
  </scstep>
  <scstep>
   <time name="diag">    0.05    0.05</time>
   <time name="diis">    0.09    0.09</time>
   <time name="orth">    0.01    0.01</time>
   <time name="total">    0.17    0.17</time>
   <energy>
    <i name="e_fr_energy">    -74.96633987 </i>
    <i name="e_wo_entrp">    -74.96633987 </i>
    <i name="e_0_energy">    -74.96633987 </i>
   </energy>
  </scstep>
  <scstep>
   <time name="diag">    0.05    0.05</time>
   <time name="diis">    0.09    0.09</time>
   <time name="orth">    0.01    0.01</time>
   <time name="total">    0.16    0.16</time>
   <energy>
    <i name="e_fr_energy">    -74.96638222 </i>
    <i name="e_wo_entrp">    -74.96638222 </i>
    <i name="e_0_energy">    -74.96638222 </i>
   </energy>
  </scstep>
  <scstep>
   <time name="diag">    0.05    0.05</time>
   <time name="diis">    0.07    0.07</time>
   <time name="orth">    0.01    0.01</time>
   <time name="total">    0.13    0.13</time>
   <energy>
    <i name="alphaZ">     64.58997972 </i>
    <i name="ewald">  -2619.60261655 </i>
    <i name="hartreedc">   -719.50457172 </i>
    <i name="XCdc">    184.87303157 </i>
    <i name="pawpsdc">   7539.47758330 </i>
    <i name="pawaedc">  -7590.04340819 </i>
    <i name="eentropy">      0.00000000 </i>
    <i name="bandstr">   -703.84421779 </i>
    <i name="atom">   3769.08782378 </i>
    <i name="e_fr_energy">    -74.96639588 </i>
    <i name="e_wo_entrp">    -74.96639588 </i>
    <i name="e_0_energy">    -74.96639588 </i>
   </energy>
  </scstep>
  <structure>
   <crystal>
    <varray name="basis" >
     <v>       7.72256970       0.00000000       0.00000000 </v>
     <v>       0.00000000       6.63196994       0.00000000 </v>
     <v>       0.00000000       0.00000000       5.96516777 </v>
    </varray>
    <i name="volume">    305.51113808 </i>
    <varray name="rec_basis" >
     <v>       0.12949058       0.00000000       0.00000000 </v>
     <v>       0.00000000       0.15078476       0.00000000 </v>
     <v>       0.00000000       0.00000000       0.16763988 </v>
    </varray>
   </crystal>
   <varray name="positions" >
    <v>       0.00000000       0.77638537       0.93428375 </v>
    <v>       0.50000000       0.22361463       0.43428375 </v>
    <v>       0.20594100       0.62406938       0.04522889 </v>
    <v>       0.29405900       0.37593062       0.54522889 </v>
    <v>       0.70594100       0.37593062       0.54522889 </v>
    <v>       0.79405900       0.62406938       0.04522889 </v>
    <v>       0.00000000       0.81071688       0.59236677 </v>
    <v>       0.50000000       0.18928312       0.09236677 </v>
    <v>       0.00000000       0.05577719       0.06558738 </v>
    <v>       0.50000000       0.94422281       0.56558738 </v>
    <v>       0.00000000       0.30531587       0.62892654 </v>
    <v>       0.50000000       0.69468413       0.12892654 </v>
    <v>       0.75193024       0.28469328       0.93854225 </v>
    <v>       0.74806976       0.71530672       0.43854225 </v>
    <v>       0.25193024       0.71530672       0.43854225 </v>
    <v>       0.24806976       0.28469328       0.93854225 </v>
   </varray>
  </structure>
  <varray name="forces" >
   <v>       0.00000000       1.25667170      -0.74795815 </v>
   <v>       0.00000000      -1.25667170      -0.74795815 </v>
   <v>       0.64228533      -0.43666048       0.29594908 </v>
   <v>      -0.64228533       0.43666048       0.29594908 </v>
   <v>       0.64228533       0.43666048       0.29594908 </v>
   <v>      -0.64228533      -0.43666048       0.29594908 </v>
   <v>       0.00000000      -0.13182193       0.43857816 </v>
   <v>       0.00000000       0.13182193       0.43857816 </v>
   <v>       0.00000000       0.94159641       0.00057770 </v>
   <v>       0.00000000      -0.94159641       0.00057770 </v>
   <v>       0.00000000      -0.46071842      -0.49512918 </v>
   <v>       0.00000000       0.46071842      -0.49512918 </v>
   <v>       0.14039311      -0.23864985       0.10601665 </v>
   <v>      -0.14039311       0.23864985       0.10601665 </v>
   <v>       0.14039311       0.23864985       0.10601665 </v>
   <v>      -0.14039311      -0.23864985       0.10601665 </v>
  </varray>
  <varray name="stress" >
   <v>      23.65907245       0.00000000       0.00000000 </v>
   <v>       0.00000000     -23.21740902       0.00000000 </v>
   <v>       0.00000000       0.00000000      -8.80711914 </v>
  </varray>
  <energy>
   <i name="e_fr_energy">    -74.96639588 </i>
   <i name="e_wo_entrp">    -74.96639588 </i>
   <i name="e_0_energy">      0.00000000 </i>
  </energy>
  <time name="totalsc">    1.73    1.75</time>
 </calculation>
 <calculation>
  <scstep>
   <time name="dav">    0.17    0.17</time>
   <time name="total">    0.19    0.19</time>
   <energy>
    <i name="alphaZ">     65.40137232 </i>
    <i name="ewald">  -2640.34301410 </i>
    <i name="hartreedc">   -714.70275016 </i>
    <i name="XCdc">    185.61735895 </i>
    <i name="pawpsdc">   7539.27998213 </i>
    <i name="pawaedc">  -7589.84776157 </i>
    <i name="eentropy">      0.00000000 </i>
    <i name="bandstr">   -689.73256783 </i>
    <i name="atom">   3769.08782378 </i>
    <i name="e_fr_energy">    -75.23955647 </i>
    <i name="e_wo_entrp">    -75.23955647 </i>
    <i name="e_0_energy">    -75.23955647 </i>
   </energy>
  </scstep>
  <scstep>
   <time name="diag">    0.05    0.05</time>
   <time name="diis">    0.08    0.08</time>
   <time name="orth">    0.01    0.01</time>
   <time name="total">    0.16    0.16</time>
   <energy>
    <i name="e_fr_energy">    -75.29374319 </i>
    <i name="e_wo_entrp">    -75.29374319 </i>
    <i name="e_0_energy">    -75.29374319 </i>
   </energy>
  </scstep>
  <scstep>
   <time name="diag">    0.05    0.05</time>
   <time name="diis">    0.11    0.11</time>
   <time name="orth">    0.01    0.01</time>
   <time name="total">    0.18    0.18</time>
   <energy>
    <i name="e_fr_energy">    -75.27931680 </i>
    <i name="e_wo_entrp">    -75.27931680 </i>
    <i name="e_0_energy">    -75.27931680 </i>
   </energy>
  </scstep>
  <scstep>
   <time name="diag">    0.05    0.05</time>
   <time name="diis">    0.10    0.10</time>
   <time name="orth">    0.01    0.01</time>
   <time name="total">    0.18    0.18</time>
   <energy>
    <i name="e_fr_energy">    -75.27507920 </i>
    <i name="e_wo_entrp">    -75.27507920 </i>
    <i name="e_0_energy">    -75.27507920 </i>
   </energy>
  </scstep>
  <scstep>
   <time name="diag">    0.05    0.05</time>
   <time name="diis">    0.11    0.11</time>
   <time name="orth">    0.01    0.01</time>
   <time name="total">    0.18    0.18</time>
   <energy>
    <i name="e_fr_energy">    -75.27573180 </i>
    <i name="e_wo_entrp">    -75.27573180 </i>
    <i name="e_0_energy">    -75.27573180 </i>
   </energy>
  </scstep>
  <scstep>
   <time name="diag">    0.05    0.05</time>
   <time name="diis">    0.11    0.11</time>
   <time name="orth">    0.01    0.01</time>
   <time name="total">    0.19    0.19</time>
   <energy>
    <i name="e_fr_energy">    -75.27642133 </i>
    <i name="e_wo_entrp">    -75.27642133 </i>
    <i name="e_0_energy">    -75.27642133 </i>
   </energy>
  </scstep>
  <scstep>
   <time name="diag">    0.05    0.05</time>
   <time name="diis">    0.10    0.10</time>
   <time name="orth">    0.01    0.01</time>
   <time name="total">    0.18    0.18</time>
   <energy>
    <i name="e_fr_energy">    -75.27684523 </i>
    <i name="e_wo_entrp">    -75.27684523 </i>
    <i name="e_0_energy">    -75.27684523 </i>
   </energy>
  </scstep>
  <scstep>
   <time name="diag">    0.05    0.05</time>
   <time name="diis">    0.10    0.10</time>
   <time name="orth">    0.01    0.01</time>
   <time name="total">    0.17    0.17</time>
   <energy>
    <i name="e_fr_energy">    -75.27714094 </i>
    <i name="e_wo_entrp">    -75.27714094 </i>
    <i name="e_0_energy">    -75.27714094 </i>
   </energy>
  </scstep>
  <scstep>
   <time name="diag">    0.05    0.05</time>
   <time name="diis">    0.10    0.10</time>
   <time name="orth">    0.01    0.01</time>
   <time name="total">    0.17    0.17</time>
   <energy>
    <i name="e_fr_energy">    -75.27731754 </i>
    <i name="e_wo_entrp">    -75.27731754 </i>
    <i name="e_0_energy">    -75.27731754 </i>
   </energy>
  </scstep>
  <scstep>
   <time name="diag">    0.05    0.05</time>
   <time name="diis">    0.09    0.09</time>
   <time name="orth">    0.01    0.01</time>
   <time name="total">    0.17    0.17</time>
   <energy>
    <i name="e_fr_energy">    -75.27742373 </i>
    <i name="e_wo_entrp">    -75.27742373 </i>
    <i name="e_0_energy">    -75.27742373 </i>
   </energy>
  </scstep>
  <scstep>
   <time name="diag">    0.05    0.05</time>
   <time name="diis">    0.09    0.09</time>
   <time name="orth">    0.01    0.01</time>
   <time name="total">    0.16    0.16</time>
   <energy>
    <i name="e_fr_energy">    -75.27748941 </i>
    <i name="e_wo_entrp">    -75.27748941 </i>
    <i name="e_0_energy">    -75.27748941 </i>
   </energy>
  </scstep>
  <scstep>
   <time name="diag">    0.05    0.05</time>
   <time name="diis">    0.09    0.09</time>
   <time name="orth">    0.01    0.01</time>
   <time name="total">    0.16    0.16</time>
   <energy>
[...]
       <r>   -9.3811    1.0000 </r>
       <r>   -5.2203    1.0000 </r>
       <r>   -5.1288    1.0000 </r>
       <r>   -2.3238    1.0000 </r>
       <r>   -2.2608    1.0000 </r>
       <r>   -2.2005    1.0000 </r>
       <r>   -2.1447    1.0000 </r>
       <r>   -1.9814    1.0000 </r>
       <r>   -1.9414    1.0000 </r>
       <r>   -0.1710    1.0000 </r>
       <r>   -0.1075    1.0000 </r>
       <r>    0.0153    1.0000 </r>
       <r>    0.0795    1.0000 </r>
       <r>    0.4041    1.0000 </r>
       <r>    0.4582    1.0000 </r>
       <r>    0.9254    1.0000 </r>
       <r>    0.9875    1.0000 </r>
       <r>    1.0674    1.0000 </r>
       <r>    1.3072    1.0000 </r>
       <r>    1.6007    1.0000 </r>
       <r>    1.7522    1.0000 </r>
       <r>    1.7812    1.0000 </r>
       <r>    1.9188    1.0000 </r>
       <r>    2.0766    1.0000 </r>
       <r>    2.1091    1.0000 </r>
       <r>    5.1099    0.0000 </r>
       <r>    5.3283    0.0000 </r>
       <r>    6.3741    0.0000 </r>
       <r>    6.4942    0.0000 </r>
       <r>    6.6560    0.0000 </r>
       <r>    6.8417    0.0000 </r>
       <r>    6.9120    0.0000 </r>
       <r>    7.0084    0.0000 </r>
       <r>    8.2544    0.0000 </r>
       <r>    8.5049    0.0000 </r>
      </set>
      <set comment="kpoint 8">
       <r>  -40.9598    1.0000 </r>
       <r>  -40.9598    1.0000 </r>
       <r>  -40.6966    1.0000 </r>
       <r>  -40.6964    1.0000 </r>
       <r>  -40.6960    1.0000 </r>
       <r>  -40.6958    1.0000 </r>
       <r>  -12.4871    1.0000 </r>
       <r>  -12.4737    1.0000 </r>
       <r>   -9.5816    1.0000 </r>
       <r>   -9.5443    1.0000 </r>
       <r>   -9.5143    1.0000 </r>
       <r>   -9.4508    1.0000 </r>
       <r>   -9.4088    1.0000 </r>
       <r>   -9.3823    1.0000 </r>
       <r>   -5.1270    1.0000 </r>
       <r>   -5.0887    1.0000 </r>
       <r>   -2.3666    1.0000 </r>
       <r>   -2.3310    1.0000 </r>
       <r>   -2.1391    1.0000 </r>
       <r>   -2.1304    1.0000 </r>
       <r>   -1.9390    1.0000 </r>
       <r>   -1.9170    1.0000 </r>
       <r>   -0.2895    1.0000 </r>
       <r>   -0.1966    1.0000 </r>
       <r>   -0.0466    1.0000 </r>
       <r>    0.0110    1.0000 </r>
       <r>    0.5309    1.0000 </r>
       <r>    0.5872    1.0000 </r>
       <r>    0.8381    1.0000 </r>
       <r>    0.9367    1.0000 </r>
       <r>    1.0589    1.0000 </r>
       <r>    1.1615    1.0000 </r>
       <r>    1.5581    1.0000 </r>
       <r>    1.6332    1.0000 </r>
       <r>    1.7851    1.0000 </r>
       <r>    1.8412    1.0000 </r>
       <r>    2.0475    1.0000 </r>
       <r>    2.1237    1.0000 </r>
       <r>    5.4365    0.0000 </r>
       <r>    5.6001    0.0000 </r>
       <r>    6.5094    0.0000 </r>
       <r>    6.5497    0.0000 </r>
       <r>    6.8421    0.0000 </r>
       <r>    6.9538    0.0000 </r>
       <r>    7.2196    0.0000 </r>
       <r>    7.3123    0.0000 </r>
       <r>    8.1961    0.0000 </r>
       <r>    8.3707    0.0000 </r>
      </set>
     </set>
    </set>
   </array>
  </eigenvalues>
  <separator name="orbital magnetization" >
   <v name="MAGDIPOLOUT">      0.00000000      0.00000000      0.00000000</v>
  </separator>
  <dos>
   <i name="efermi">      2.21117602 </i>
   <total>
    <array>
     <dimension dim="1">gridpoints</dimension>
     <dimension dim="2">spin</dimension>
     <field>energy</field>
     <field>total</field>
     <field>integrated</field>
     <set>
      <set comment="spin 1">
       <r>   -43.4452     0.0000     0.0000 </r>
       <r>   -43.2630     0.0000     0.0000 </r>
       <r>   -43.0807     0.0000     0.0000 </r>
       <r>   -42.8985     0.0000     0.0000 </r>
       <r>   -42.7162     0.0000     0.0000 </r>
       <r>   -42.5339     0.0000     0.0000 </r>
       <r>   -42.3517     0.0000     0.0000 </r>
       <r>   -42.1694     0.0000     0.0000 </r>
       <r>   -41.9872     0.0000     0.0000 </r>
       <r>   -41.8049     0.0000     0.0000 </r>
       <r>   -41.6226     0.0000     0.0000 </r>
       <r>   -41.4404     0.0000     0.0000 </r>
       <r>   -41.2581     0.0000     0.0000 </r>
       <r>   -41.0759     0.0000     0.0000 </r>
       <r>   -40.8936     0.0000     4.0000 </r>
       <r>   -40.7113     0.0000     4.0000 </r>
       <r>   -40.5291     0.0000    12.0000 </r>
       <r>   -40.3468     0.0000    12.0000 </r>
       <r>   -40.1645     0.0000    12.0000 </r>
       <r>   -39.9823     0.0000    12.0000 </r>
       <r>   -39.8000     0.0000    12.0000 </r>
       <r>   -39.6178     0.0000    12.0000 </r>
       <r>   -39.4355     0.0000    12.0000 </r>
       <r>   -39.2532     0.0000    12.0000 </r>
       <r>   -39.0710     0.0000    12.0000 </r>
       <r>   -38.8887     0.0000    12.0000 </r>
       <r>   -38.7065     0.0000    12.0000 </r>
       <r>   -38.5242     0.0000    12.0000 </r>
       <r>   -38.3419     0.0000    12.0000 </r>
       <r>   -38.1597     0.0000    12.0000 </r>
       <r>   -37.9774     0.0000    12.0000 </r>
       <r>   -37.7952     0.0000    12.0000 </r>
       <r>   -37.6129     0.0000    12.0000 </r>
       <r>   -37.4306     0.0000    12.0000 </r>
       <r>   -37.2484     0.0000    12.0000 </r>
       <r>   -37.0661     0.0000    12.0000 </r>
       <r>   -36.8838     0.0000    12.0000 </r>
       <r>   -36.7016     0.0000    12.0000 </r>
       <r>   -36.5193     0.0000    12.0000 </r>
       <r>   -36.3371     0.0000    12.0000 </r>
       <r>   -36.1548     0.0000    12.0000 </r>
       <r>   -35.9725     0.0000    12.0000 </r>
       <r>   -35.7903     0.0000    12.0000 </r>
       <r>   -35.6080     0.0000    12.0000 </r>
       <r>   -35.4258     0.0000    12.0000 </r>
       <r>   -35.2435     0.0000    12.0000 </r>
       <r>   -35.0612     0.0000    12.0000 </r>
       <r>   -34.8790     0.0000    12.0000 </r>
       <r>   -34.6967     0.0000    12.0000 </r>
       <r>   -34.5144     0.0000    12.0000 </r>
       <r>   -34.3322     0.0000    12.0000 </r>
       <r>   -34.1499     0.0000    12.0000 </r>
       <r>   -33.9677     0.0000    12.0000 </r>
       <r>   -33.7854     0.0000    12.0000 </r>
       <r>   -33.6031     0.0000    12.0000 </r>
       <r>   -33.4209     0.0000    12.0000 </r>
       <r>   -33.2386     0.0000    12.0000 </r>
       <r>   -33.0564     0.0000    12.0000 </r>
       <r>   -32.8741     0.0000    12.0000 </r>
       <r>   -32.6918     0.0000    12.0000 </r>
       <r>   -32.5096     0.0000    12.0000 </r>
       <r>   -32.3273     0.0000    12.0000 </r>
       <r>   -32.1451     0.0000    12.0000 </r>
       <r>   -31.9628     0.0000    12.0000 </r>
       <r>   -31.7805     0.0000    12.0000 </r>
       <r>   -31.5983     0.0000    12.0000 </r>
       <r>   -31.4160     0.0000    12.0000 </r>
       <r>   -31.2337     0.0000    12.0000 </r>
       <r>   -31.0515     0.0000    12.0000 </r>
       <r>   -30.8692     0.0000    12.0000 </r>
       <r>   -30.6870     0.0000    12.0000 </r>
       <r>   -30.5047     0.0000    12.0000 </r>
       <r>   -30.3224     0.0000    12.0000 </r>
       <r>   -30.1402     0.0000    12.0000 </r>
       <r>   -29.9579     0.0000    12.0000 </r>
       <r>   -29.7757     0.0000    12.0000 </r>
       <r>   -29.5934     0.0000    12.0000 </r>
       <r>   -29.4111     0.0000    12.0000 </r>
       <r>   -29.2289     0.0000    12.0000 </r>
       <r>   -29.0466     0.0000    12.0000 </r>
       <r>   -28.8644     0.0000    12.0000 </r>
       <r>   -28.6821     0.0000    12.0000 </r>
       <r>   -28.4998     0.0000    12.0000 </r>
       <r>   -28.3176     0.0000    12.0000 </r>
       <r>   -28.1353     0.0000    12.0000 </r>
       <r>   -27.9530     0.0000    12.0000 </r>
       <r>   -27.7708     0.0000    12.0000 </r>
       <r>   -27.5885     0.0000    12.0000 </r>
       <r>   -27.4063     0.0000    12.0000 </r>
       <r>   -27.2240     0.0000    12.0000 </r>
       <r>   -27.0417     0.0000    12.0000 </r>
       <r>   -26.8595     0.0000    12.0000 </r>
       <r>   -26.6772     0.0000    12.0000 </r>
       <r>   -26.4950     0.0000    12.0000 </r>
       <r>   -26.3127     0.0000    12.0000 </r>
       <r>   -26.1304     0.0000    12.0000 </r>
       <r>   -25.9482     0.0000    12.0000 </r>
       <r>   -25.7659     0.0000    12.0000 </r>
       <r>   -25.5837     0.0000    12.0000 </r>
       <r>   -25.4014     0.0000    12.0000 </r>
       <r>   -25.2191     0.0000    12.0000 </r>
       <r>   -25.0369     0.0000    12.0000 </r>
       <r>   -24.8546     0.0000    12.0000 </r>
       <r>   -24.6723     0.0000    12.0000 </r>
       <r>   -24.4901     0.0000    12.0000 </r>
       <r>   -24.3078     0.0000    12.0000 </r>
       <r>   -24.1256     0.0000    12.0000 </r>
       <r>   -23.9433     0.0000    12.0000 </r>
       <r>   -23.7610     0.0000    12.0000 </r>
       <r>   -23.5788     0.0000    12.0000 </r>
       <r>   -23.3965     0.0000    12.0000 </r>
       <r>   -23.2143     0.0000    12.0000 </r>
       <r>   -23.0320     0.0000    12.0000 </r>
       <r>   -22.8497     0.0000    12.0000 </r>
       <r>   -22.6675     0.0000    12.0000 </r>
       <r>   -22.4852     0.0000    12.0000 </r>
       <r>   -22.3030     0.0000    12.0000 </r>
       <r>   -22.1207     0.0000    12.0000 </r>
       <r>   -21.9384     0.0000    12.0000 </r>
       <r>   -21.7562     0.0000    12.0000 </r>
       <r>   -21.5739     0.0000    12.0000 </r>
       <r>   -21.3916     0.0000    12.0000 </r>
       <r>   -21.2094     0.0000    12.0000 </r>
       <r>   -21.0271     0.0000    12.0000 </r>
       <r>   -20.8449     0.0000    12.0000 </r>
       <r>   -20.6626     0.0000    12.0000 </r>
       <r>   -20.4803     0.0000    12.0000 </r>
       <r>   -20.2981     0.0000    12.0000 </r>
       <r>   -20.1158     0.0000    12.0000 </r>
       <r>   -19.9336     0.0000    12.0000 </r>
       <r>   -19.7513     0.0000    12.0000 </r>
       <r>   -19.5690     0.0000    12.0000 </r>
       <r>   -19.3868     0.0000    12.0000 </r>
       <r>   -19.2045     0.0000    12.0000 </r>
       <r>   -19.0222     0.0000    12.0000 </r>
       <r>   -18.8400     0.0000    12.0000 </r>
       <r>   -18.6577     0.0000    12.0000 </r>
       <r>   -18.4755     0.0000    12.0000 </r>
       <r>   -18.2932     0.0000    12.0000 </r>
       <r>   -18.1109     0.0000    12.0000 </r>
       <r>   -17.9287     0.0000    12.0000 </r>
       <r>   -17.7464     0.0000    12.0000 </r>
       <r>   -17.5642     0.0000    12.0000 </r>
       <r>   -17.3819     0.0000    12.0000 </r>
       <r>   -17.1996     0.0000    12.0000 </r>
       <r>   -17.0174     0.0000    12.0000 </r>
       <r>   -16.8351     0.0000    12.0000 </r>
       <r>   -16.6529     0.0000    12.0000 </r>
       <r>   -16.4706     0.0000    12.0000 </r>
       <r>   -16.2883     0.0000    12.0000 </r>
       <r>   -16.1061     0.0000    12.0000 </r>
       <r>   -15.9238     0.0000    12.0000 </r>
       <r>   -15.7415     0.0000    12.0000 </r>
       <r>   -15.5593     0.0000    12.0000 </r>
       <r>   -15.3770     0.0000    12.0000 </r>
       <r>   -15.1948     0.0000    12.0000 </r>
       <r>   -15.0125     0.0000    12.0000 </r>
       <r>   -14.8302     0.0000    12.0000 </r>
       <r>   -14.6480     0.0000    12.0000 </r>
       <r>   -14.4657     0.0000    12.0000 </r>
       <r>   -14.2835     0.0000    12.0000 </r>
       <r>   -14.1012     0.0000    12.0000 </r>
       <r>   -13.9189     0.0000    12.0000 </r>
       <r>   -13.7367     0.0000    12.0000 </r>
       <r>   -13.5544     0.0000    12.0000 </r>
       <r>   -13.3722     0.0000    12.0000 </r>
       <r>   -13.1899     0.0000    12.0000 </r>
       <r>   -13.0076     0.0000    12.0000 </r>
       <r>   -12.8254     0.0000    12.0000 </r>
       <r>   -12.6431     0.0000    12.0000 </r>
       <r>   -12.4608    24.0696    15.8471 </r>
       <r>   -12.2786     0.0000    16.0000 </r>
       <r>   -12.0963     0.0000    16.0000 </r>
       <r>   -11.9141     0.0000    16.0000 </r>
       <r>   -11.7318     0.0000    16.0000 </r>
       <r>   -11.5495     0.0000    16.0000 </r>
       <r>   -11.3673     0.0000    16.0000 </r>
       <r>   -11.1850     0.0000    16.0000 </r>
       <r>   -11.0028     0.0000    16.0000 </r>
       <r>   -10.8205     0.0000    16.0000 </r>
       <r>   -10.6382     0.0000    16.0000 </r>
       <r>   -10.4560     0.0000    16.0000 </r>
       <r>   -10.2737     0.0000    16.0000 </r>
       <r>   -10.0915     0.0000    16.0000 </r>
       <r>    -9.9092     0.0000    16.0000 </r>
       <r>    -9.7269     0.0000    16.0000 </r>
       <r>    -9.5447    44.2658    18.5990 </r>
       <r>    -9.3624    42.6527    25.6156 </r>
       <r>    -9.1801     0.0000    28.0000 </r>
       <r>    -8.9979     0.0000    28.0000 </r>
       <r>    -8.8156     0.0000    28.0000 </r>
       <r>    -8.6334     0.0000    28.0000 </r>
       <r>    -8.4511     0.0000    28.0000 </r>
       <r>    -8.2688     0.0000    28.0000 </r>
       <r>    -8.0866     0.0000    28.0000 </r>
       <r>    -7.9043     0.0000    28.0000 </r>
       <r>    -7.7221     0.0000    28.0000 </r>
       <r>    -7.5398     0.0000    28.0000 </r>
       <r>    -7.3575     0.0000    28.0000 </r>
       <r>    -7.1753     0.0000    28.0000 </r>
       <r>    -6.9930     0.0000    28.0000 </r>
       <r>    -6.8108     0.0000    28.0000 </r>
       <r>    -6.6285     0.0000    28.0000 </r>
       <r>    -6.4462     0.0000    28.0000 </r>
       <r>    -6.2640     0.0000    28.0000 </r>
       <r>    -6.0817     0.0000    28.0000 </r>
       <r>    -5.8994     0.0000    28.0000 </r>
       <r>    -5.7172     0.0000    28.0000 </r>
       <r>    -5.5349     0.0000    28.0000 </r>
       <r>    -5.3527     3.9667    28.4317 </r>
       <r>    -5.1704     3.6967    29.8491 </r>
       <r>    -4.9881     0.0000    32.0000 </r>
       <r>    -4.8059     0.0000    32.0000 </r>
       <r>    -4.6236     0.0000    32.0000 </r>
       <r>    -4.4414     0.0000    32.0000 </r>
       <r>    -4.2591     0.0000    32.0000 </r>
       <r>    -4.0768     0.0000    32.0000 </r>
       <r>    -3.8946     0.0000    32.0000 </r>
       <r>    -3.7123     0.0000    32.0000 </r>
       <r>    -3.5301     0.0000    32.0000 </r>
       <r>    -3.3478     0.0000    32.0000 </r>
       <r>    -3.1655     0.0000    32.0000 </r>
       <r>    -2.9833     0.0000    32.0000 </r>
       <r>    -2.8010     0.0000    32.0000 </r>
       <r>    -2.6187     0.0000    32.0000 </r>
       <r>    -2.4365    19.8252    34.2536 </r>
       <r>    -2.2542    11.6008    37.2941 </r>
       <r>    -2.0720    17.9983    41.2060 </r>
       <r>    -1.8897     0.0000    44.0000 </r>
       <r>    -1.7074     0.0000    44.0000 </r>
       <r>    -1.5252     0.0000    44.0000 </r>
       <r>    -1.3429     0.0000    44.0000 </r>
       <r>    -1.1607     0.0000    44.0000 </r>
       <r>    -0.9784     0.0000    44.0000 </r>
       <r>    -0.7961     0.0000    44.0000 </r>
       <r>    -0.6139     0.0000    44.0000 </r>
       <r>    -0.4316     0.0000    44.0000 </r>
       <r>    -0.2493     5.2078    44.1730 </r>
       <r>    -0.0671     8.6482    47.2231 </r>
       <r>     0.1152    15.0050    50.1128 </r>
       <r>     0.2974     0.0000    52.0000 </r>
       <r>     0.4797     9.6183    53.3231 </r>
       <r>     0.6620     5.0641    55.0962 </r>
       <r>     0.8442    10.4638    56.2330 </r>
       <r>     1.0265    13.6768    59.0890 </r>
       <r>     1.2087    10.0499    61.6693 </r>
       <r>     1.3910     8.1615    63.6951 </r>
       <r>     1.5733    15.5342    65.5507 </r>
       <r>     1.7555    12.7537    67.9708 </r>
       <r>     1.9378    17.8665    71.8367 </r>
       <r>     2.1200    23.8571    74.9815 </r>
       <r>     2.3023     0.0000    76.0000 </r>
       <r>     2.4846     0.0000    76.0000 </r>
       <r>     2.6668     0.0000    76.0000 </r>
       <r>     2.8491     0.0000    76.0000 </r>
       <r>     3.0314     0.0000    76.0000 </r>
       <r>     3.2136     0.0000    76.0000 </r>
       <r>     3.3959     0.0000    76.0000 </r>
       <r>     3.5781     0.0000    76.0000 </r>
       <r>     3.7604     0.0000    76.0000 </r>
       <r>     3.9427     0.0000    76.0000 </r>
       <r>     4.1249     0.0000    76.0000 </r>
       <r>     4.3072     0.0000    76.0000 </r>
       <r>     4.4894     0.0000    76.0000 </r>
       <r>     4.6717     0.0000    76.0000 </r>
       <r>     4.8540     0.0000    76.0000 </r>
       <r>     5.0362     0.0000    76.0000 </r>
       <r>     5.2185     2.4056    76.4863 </r>
       <r>     5.4007     3.8322    77.0532 </r>
       <r>     5.5830     4.5598    78.1036 </r>
       <r>     5.7653     3.6113    78.9825 </r>
       <r>     5.9475     2.4567    79.7374 </r>
       <r>     6.1298     1.2071    80.0759 </r>
       <r>     6.3121     3.1488    80.5071 </r>
       <r>     6.4943    12.6872    81.8833 </r>
       <r>     6.6766     9.7009    84.2727 </r>
       <r>     6.8588    10.6719    86.0974 </r>
       <r>     7.0411    10.5164    88.4907 </r>
       <r>     7.2234     8.7861    90.8102 </r>
       <r>     7.4056     0.0000    92.0000 </r>
       <r>     7.5879     0.0000    92.0000 </r>
       <r>     7.7701     0.0000    92.0000 </r>
       <r>     7.9524     0.0000    92.0000 </r>
       <r>     8.1347     1.2998    92.0686 </r>
       <r>     8.3169     5.3438    93.3288 </r>
       <r>     8.4992     6.8104    94.3192 </r>
       <r>     8.6814     2.3199    95.8607 </r>
       <r>     8.8637     0.0000    96.0000 </r>
       <r>     9.0460     0.0000    96.0000 </r>
       <r>     9.2282     0.0000    96.0000 </r>
       <r>     9.4105     0.0000    96.0000 </r>
       <r>     9.5928     0.0000    96.0000 </r>
       <r>     9.7750     0.0000    96.0000 </r>
       <r>     9.9573     0.0000    96.0000 </r>
       <r>    10.1395     0.0000    96.0000 </r>
       <r>    10.3218     0.0000    96.0000 </r>
       <r>    10.5041     0.0000    96.0000 </r>
       <r>    10.6863     0.0000    96.0000 </r>
       <r>    10.8686     0.0000    96.0000 </r>
       <r>    11.0508     0.0000    96.0000 </r>
       <r>    11.2331     0.0000    96.0000 </r>
      </set>
     </set>
    </array>
   </total>
  </dos>
 </calculation>
 <structure name="finalpos" >
  <crystal>
   <varray name="basis" >
    <v>       7.44877288       0.00000000       0.00000000 </v>
    <v>       0.00000000       6.43206248       0.00000000 </v>
    <v>       0.00000000       0.00000000       5.98967227 </v>
   </varray>
   <i name="volume">    286.97102348 </i>
   <varray name="rec_basis" >
    <v>       0.13425030       0.00000000       0.00000000 </v>
    <v>       0.00000000       0.15547113       0.00000000 </v>
    <v>       0.00000000       0.00000000       0.16695404 </v>
   </varray>
  </crystal>
  <varray name="positions" >
   <v>      -0.00000000       0.81662844       0.95940440 </v>
   <v>       0.50000000       0.18337156       0.45940440 </v>
   <v>       0.22347338       0.66556638       0.06910426 </v>
   <v>       0.27652662       0.33443362       0.56910426 </v>
   <v>       0.72347338       0.33443362       0.56910426 </v>
   <v>       0.77652662       0.66556638       0.06910426 </v>
   <v>      -0.00000000       0.81299794       0.62002766 </v>
   <v>       0.50000000       0.18700206       0.12002766 </v>
   <v>      -0.00000000       0.11217648       0.07840334 </v>
   <v>       0.50000000       0.88782352       0.57840334 </v>
   <v>      -0.00000000       0.15216625       0.47543081 </v>
   <v>       0.50000000       0.84783375      -0.02456919 </v>
   <v>       0.75937968       0.31421147       0.95861600 </v>
   <v>       0.74062032       0.68578853       0.45861600 </v>
   <v>       0.25937968       0.68578853       0.45861600 </v>
   <v>       0.24062032       0.31421147       0.95861600 </v>
  </varray>
 </structure>
</modeling>
