unknown system                          
           1
     7.276460    0.000000    0.000000
     0.000000    6.481008    0.000000
     0.000000    0.000000    5.880690
   P    S    Li
   2   8   6
Direct configuration=     1
   0.00000000  0.75187285  0.92093628
   0.50000000  0.24812715  0.42093628
   0.22332455  0.60171866  0.04126437
   0.27667545  0.39828134  0.54126437
   0.72332455  0.39828134  0.54126437
   0.77667545  0.60171866  0.04126437
   0.00000000  0.80528315  0.58006808
   0.50000000  0.19471685  0.08006808
   0.00000000  0.04259809  0.06756774
   0.50000000  0.95740191  0.56756774
   0.00000000  0.32041752  0.63419497
   0.50000000  0.67958248  0.13419497
   0.74071194  0.30894288  0.95170546
   0.75928806  0.69105712  0.45170546
   0.24071194  0.69105712  0.45170546
   0.25928806  0.30894288  0.95170546
unknown system                          
           1
     7.655174    0.000000    0.000000
     0.000000    6.680221    0.000000
     0.000000    0.000000    5.934815
   P    S    Li
   2   8   6
Direct configuration=     2
   0.00000000  0.77005407  0.92519620
   0.50000000  0.22994593  0.42519620
   0.21658438  0.61364293  0.04505119
   0.28341562  0.38635707  0.54505119
   0.71658438  0.38635707  0.54505119
   0.78341562  0.61364293  0.04505119
   0.00000000  0.80975157  0.58899933
   0.50000000  0.19024843  0.08899933
   0.00000000  0.04345378  0.06438258
   0.50000000  0.95654622  0.56438258
   0.00000000  0.31347025  0.63406761
   0.50000000  0.68652975  0.13406761
   0.74727288  0.29514366  0.94297931
   0.75272712  0.70485634  0.44297931
   0.24727288  0.70485634  0.44297931
   0.25272712  0.29514366  0.94297931
unknown system                          
           1
     7.777980    0.000000    0.000000
     0.000000    6.744821    0.000000
     0.000000    0.000000    5.952367
   P    S    Li
   2   8   6
Direct configuration=     3
   0.00000000  0.77577392  0.92656497
   0.50000000  0.22422608  0.42656497
   0.21450687  0.61739433  0.04626795
   0.28549313  0.38260567  0.54626795
   0.71450687  0.38260567  0.54626795
   0.78549313  0.61739433  0.04626795
   0.00000000  0.81115735  0.59186908
   0.50000000  0.18884265  0.09186908
   0.00000000  0.04372299  0.06335914
   0.50000000  0.95627701  0.56335914
   0.00000000  0.31128463  0.63402669
   0.50000000  0.68871537  0.13402669
   0.74929516  0.29080240  0.94017547
   0.75070484  0.70919760  0.44017547
   0.24929516  0.70919760  0.44017547
   0.25070484  0.29080240  0.94017547
unknown system                          
           1
     7.733757    0.000000    0.000000
     0.000000    6.654754    0.000000
     0.000000    0.000000    5.962583
   P    S    Li
   2   8   6
Direct configuration=     4
   0.00000000  0.77626059  0.93272753
   0.50000000  0.22373941  0.43272753
   0.20767826  0.62270723  0.04543838
   0.29232174  0.37729277  0.54543838
   0.70767826  0.37729277  0.54543838
   0.79232174  0.62270723  0.04543838
   0.00000000  0.81080676  0.59226643
   0.50000000  0.18919324  0.09226643
   0.00000000  0.05331734  0.06513813
   0.50000000  0.94668266  0.56513813
   0.00000000  0.30653389  0.62995481
   0.50000000  0.69346611  0.12995481
   0.75139581  0.28593994  0.93887153
   0.74860419  0.71406006  0.43887153
   0.25139581  0.71406006  0.43887153
   0.24860419  0.28593994  0.93887153
unknown system                          
           1
     7.722570    0.000000    0.000000
     0.000000    6.631970    0.000000
     0.000000    0.000000    5.965168
   P    S    Li
   2   8   6
Direct configuration=     5
   0.00000000  0.77638537  0.93428375
   0.50000000  0.22361463  0.43428375
   0.20594100  0.62406938  0.04522889
   0.29405900  0.37593062  0.54522889
   0.70594100  0.37593062  0.54522889
   0.79405900  0.62406938  0.04522889
   0.00000000  0.81071688  0.59236677
   0.50000000  0.18928312  0.09236677
   0.00000000  0.05577719  0.06558738
   0.50000000  0.94422281  0.56558738
   0.00000000  0.30531587  0.62892654
   0.50000000  0.69468413  0.12892654
   0.75193024  0.28469328  0.93854225
   0.74806976  0.71530672  0.43854225
   0.25193024  0.71530672  0.43854225
   0.24806976  0.28469328  0.93854225
unknown system                          
           1
     7.755478    0.000000    0.000000
     0.000000    6.533732    0.000000
     0.000000    0.000000    5.954365
   P    S    Li
   2   8   6
Direct configuration=     6
   0.00000000  0.78167251  0.93442190
   0.50000000  0.21832749  0.43442190
   0.20427787  0.62536277  0.04607564
   0.29572213  0.37463723  0.54607564
   0.70427787  0.37463723  0.54607564
   0.79572213  0.62536277  0.04607564
   0.00000000  0.80999122  0.59453305
   0.50000000  0.19000878  0.09453305
   0.00000000  0.06500943  0.06658670
   0.50000000  0.93499057  0.56658670
   0.00000000  0.30076645  0.62445082
   0.50000000  0.69923355  0.12445082
   0.75359882  0.28096525  0.93828148
   0.74640118  0.71903475  0.43828148
   0.25359882  0.71903475  0.43828148
   0.24640118  0.28096525  0.93828148
unknown system                          
           1
     7.854205    0.000000    0.000000
     0.000000    6.239017    0.000000
     0.000000    0.000000    5.921956
   P    S    Li
   2   8   6
Direct configuration=     7
   0.00000000  0.79777244  0.93483712
   0.50000000  0.20222756  0.43483712
   0.19930963  0.62930130  0.04862050
   0.30069037  0.37069870  0.54862050
   0.69930963  0.37069870  0.54862050
   0.80069037  0.62930130  0.04862050
   0.00000000  0.80778150  0.60104366
   0.50000000  0.19221850  0.10104366
   0.00000000  0.09312256  0.06959011
   0.50000000  0.90687744  0.56959011
   0.00000000  0.28691299  0.61099928
   0.50000000  0.71308701  0.11099928
   0.75858332  0.26961301  0.93749777
   0.74141668  0.73038699  0.43749777
   0.25858332  0.73038699  0.43749777
   0.24141668  0.26961301  0.93749777
unknown system                          
           1
     7.967370    0.000000    0.000000
     0.000000    6.166631    0.000000
     0.000000    0.000000    5.969555
   P    S    Li
   2   8   6
Direct configuration=     8
   0.00000000  0.80263431  0.93892000
   0.50000000  0.19736569  0.43892000
   0.20295156  0.62936861  0.05242633
   0.29704844  0.37063139  0.55242633
   0.70295156  0.37063139  0.55242633
   0.79704844  0.62936861  0.05242633
   0.00000000  0.80861565  0.59549296
   0.50000000  0.19138435  0.09549296
   0.00000000  0.10442226  0.07007169
   0.50000000  0.89557774  0.57007169
   0.00000000  0.28069091  0.60426425
   0.50000000  0.71930909  0.10426425
   0.75863994  0.26682694  0.93755258
   0.74136006  0.73317306  0.43755258
   0.25863994  0.73317306  0.43755258
   0.24136006  0.26682694  0.93755258
unknown system                          
           1
     7.972142    0.000000    0.000000
     0.000000    6.163579    0.000000
     0.000000    0.000000    5.971562
   P    S    Li
   2   8   6
Direct configuration=     9
   0.00000000  0.80284174  0.93909080
   0.50000000  0.19715826  0.43909080
   0.20310295  0.62937148  0.05258554
   0.29689705  0.37062852  0.55258554
   0.70310295  0.37062852  0.55258554
   0.79689705  0.62937148  0.05258554
   0.00000000  0.80865124  0.59526076
   0.50000000  0.19134876  0.09526076
   0.00000000  0.10490435  0.07009184
   0.50000000  0.89509565  0.57009184
   0.00000000  0.28042546  0.60398251
   0.50000000  0.71957454  0.10398251
   0.75864230  0.26670807  0.93755487
   0.74135770  0.73329193  0.43755487
   0.25864230  0.73329193  0.43755487
   0.24135770  0.26670807  0.93755487
unknown system                          
           1
     7.986619    0.000000    0.000000
     0.000000    6.078449    0.000000
     0.000000    0.000000    5.940910
   P    S    Li
   2   8   6
Direct configuration=    10
   0.00000000  0.80153240  0.94125386
   0.50000000  0.19846760  0.44125386
   0.20481278  0.63192390  0.05521453
   0.29518722  0.36807610  0.55521453
   0.70481278  0.36807610  0.55521453
   0.79518722  0.63192390  0.05521453
   0.00000000  0.81033629  0.59509553
   0.50000000  0.18966371  0.09509553
   0.00000000  0.11145040  0.06918608
   0.50000000  0.88854960  0.56918608
   0.00000000  0.27447163  0.59753272
   0.50000000  0.72552837  0.09753272
   0.75715959  0.26578778  0.93760474
   0.74284041  0.73421222  0.43760474
   0.25715959  0.73421222  0.43760474
   0.24284041  0.26578778  0.93760474
unknown system                          
           1
     8.030050    0.000000    0.000000
     0.000000    5.823059    0.000000
     0.000000    0.000000    5.848953
   P    S    Li
   2   8   6
Direct configuration=    11
   0.00000000  0.79754935  0.94777652
   0.50000000  0.20245065  0.44777652
   0.20993299  0.63968839  0.06314220
   0.29006701  0.36031161  0.56314220
   0.70993299  0.36031161  0.56314220
   0.79006701  0.63968839  0.06314220
   0.00000000  0.81546225  0.59459728
   0.50000000  0.18453775  0.09459728
   0.00000000  0.13136358  0.06645478
   0.50000000  0.86863642  0.56645478
   0.00000000  0.25636002  0.57808353
   0.50000000  0.74363998  0.07808353
   0.75271954  0.26298825  0.93775511
   0.74728046  0.73701175  0.43775511
   0.25271954  0.73701175  0.43775511
   0.24728046  0.26298825  0.93775511
unknown system                          
           1
     8.017203    0.000000    0.000000
     0.000000    5.898606    0.000000
     0.000000    0.000000    5.876155
   P    S    Li
   2   8   6
Direct configuration=    12
   0.00000000  0.79877927  0.94581670
   0.50000000  0.20122073  0.44581670
   0.20842655  0.63729081  0.06076022
   0.29157345  0.36270919  0.56076022
   0.70842655  0.36270919  0.56076022
   0.79157345  0.63729081  0.06076022
   0.00000000  0.81387942  0.59474699
   0.50000000  0.18612058  0.09474699
   0.00000000  0.12521464  0.06727543
   0.50000000  0.87478536  0.56727543
   0.00000000  0.26195266  0.58392731
   0.50000000  0.73804734  0.08392731
   0.75402586  0.26385271  0.93770993
   0.74597414  0.73614729  0.43770993
   0.25402586  0.73614729  0.43770993
   0.24597414  0.26385271  0.93770993
unknown system                          
           1
     8.018848    0.000000    0.000000
     0.000000    5.851281    0.000000
     0.000000    0.000000    5.841504
   P    S    Li
   2   8   6
Direct configuration=    13
   0.00000000  0.80334917  0.94715417
   0.50000000  0.19665083  0.44715417
   0.20718783  0.63987786  0.06130768
   0.29281217  0.36012214  0.56130768
   0.70718783  0.36012214  0.56130768
   0.79281217  0.63987786  0.06130768
   0.00000000  0.81489835  0.59994534
   0.50000000  0.18510165  0.09994534
   0.00000000  0.12572803  0.06524712
   0.50000000  0.87427197  0.56524712
   0.00000000  0.25295292  0.57617510
   0.50000000  0.74704708  0.07617510
   0.75171363  0.26360611  0.93878481
   0.74828637  0.73639389  0.43878481
   0.25171363  0.73639389  0.43878481
   0.24828637  0.26360611  0.93878481
unknown system                          
           1
     8.019079    0.000000    0.000000
     0.000000    5.844616    0.000000
     0.000000    0.000000    5.836624
   P    S    Li
   2   8   6
Direct configuration=    14
   0.00000000  0.80399799  0.94734366
   0.50000000  0.19600201  0.44734366
   0.20701341  0.64024516  0.06138525
   0.29298659  0.35975484  0.56138525
   0.70701341  0.35975484  0.56138525
   0.79298659  0.64024516  0.06138525
   0.00000000  0.81504301  0.60068180
   0.50000000  0.18495699  0.10068180
   0.00000000  0.12580091  0.06495976
   0.50000000  0.87419909  0.56495976
   0.00000000  0.25167517  0.57507683
   0.50000000  0.74832483  0.07507683
   0.75138805  0.26357110  0.93893709
   0.74861195  0.73642890  0.43893709
   0.25138805  0.73642890  0.43893709
   0.24861195  0.26357110  0.93893709
unknown system                          
           1
     8.033257    0.000000    0.000000
     0.000000    5.863705    0.000000
     0.000000    0.000000    5.854172
   P    S    Li
   2   8   6
Direct configuration=    15
  -0.00000000  0.80597472  0.94886615
   0.50000000  0.19402528  0.44886615
   0.20607192  0.64165957  0.06148243
   0.29392808  0.35834043  0.56148243
   0.70607192  0.35834043  0.56148243
   0.79392808  0.64165957  0.06148243
  -0.00000000  0.81549703  0.60265572
   0.50000000  0.18450297  0.10265572
  -0.00000000  0.12794107  0.06483385
   0.50000000  0.87205893  0.56483385
  -0.00000000  0.24478889  0.56931524
   0.50000000  0.75521111  0.06931524
   0.74979061  0.26369168  0.94003545
   0.75020939  0.73630832  0.44003545
   0.24979061  0.73630832  0.44003545
   0.25020939  0.26369168  0.94003545
unknown system                          
           1
     8.075791    0.000000    0.000000
     0.000000    5.920973    0.000000
     0.000000    0.000000    5.906818
   P    S    Li
   2   8   6
Direct configuration=    16
  -0.00000000  0.81188562  0.95341994
   0.50000000  0.18811438  0.45341994
   0.20325244  0.64588898  0.06177312
   0.29674756  0.35411102  0.56177312
   0.70325244  0.35411102  0.56177312
   0.79674756  0.64588898  0.06177312
  -0.00000000  0.81685466  0.60855973
   0.50000000  0.18314534  0.10855973
  -0.00000000  0.13434065  0.06445722
   0.50000000  0.86565935  0.56445722
  -0.00000000  0.22419728  0.55208228
   0.50000000  0.77580272  0.05208228
   0.74500674  0.26405225  0.94332065
   0.75499326  0.73594775  0.44332065
   0.24500674  0.73594775  0.44332065
   0.25499326  0.26405225  0.94332065
unknown system                          
           1
     8.094095    0.000000    0.000000
     0.000000    5.945616    0.000000
     0.000000    0.000000    5.929473
   P    S    Li
   2   8   6
Direct configuration=    17
  -0.00000000  0.81440457  0.95536204
   0.50000000  0.18559543  0.45536204
   0.20204556  0.64769136  0.06189710
   0.29795444  0.35230864  0.56189710
   0.70204556  0.35230864  0.56189710
   0.79795444  0.64769136  0.06189710
  -0.00000000  0.81743322  0.61107768
   0.50000000  0.18256678  0.11107768
  -0.00000000  0.13706785  0.06429660
   0.50000000  0.86293215  0.56429660
  -0.00000000  0.21542209  0.54473276
   0.50000000  0.78457791  0.04473276
   0.74295901  0.26420590  0.94472172
   0.75704099  0.73579410  0.44472172
   0.24295901  0.73579410  0.44472172
   0.25704099  0.26420590  0.94472172
unknown system                          
           1
     8.090462    0.000000    0.000000
     0.000000    5.985880    0.000000
     0.000000    0.000000    5.944588
   P    S    Li
   2   8   6
Direct configuration=    18
  -0.00000000  0.81571334  0.95570622
   0.50000000  0.18428666  0.45570622
   0.20409986  0.64835126  0.06345712
   0.29590014  0.35164874  0.56345712
   0.70409986  0.35164874  0.56345712
   0.79590014  0.64835126  0.06345712
  -0.00000000  0.81758514  0.61156416
   0.50000000  0.18241486  0.11156416
  -0.00000000  0.13808809  0.06522609
   0.50000000  0.86191191  0.56522609
  -0.00000000  0.21093616  0.53918674
   0.50000000  0.78906384  0.03918674
   0.74352949  0.26598320  0.94505463
   0.75647051  0.73401680  0.44505463
   0.24352949  0.73401680  0.44505463
   0.25647051  0.26598320  0.94505463
unknown system                          
           1
     8.087072    0.000000    0.000000
     0.000000    6.023462    0.000000
     0.000000    0.000000    5.958698
   P    S    Li
   2   8   6
Direct configuration=    19
  -0.00000000  0.81692674  0.95602668
   0.50000000  0.18307326  0.45602668
   0.20601824  0.64896308  0.06490957
   0.29398176  0.35103692  0.56490957
   0.70601824  0.35103692  0.56490957
   0.79398176  0.64896308  0.06490957
  -0.00000000  0.81772599  0.61201710
   0.50000000  0.18227401  0.11201710
  -0.00000000  0.13903400  0.06609150
   0.50000000  0.86096600  0.56609150
  -0.00000000  0.20677706  0.53402314
   0.50000000  0.79322294  0.03402314
   0.74406223  0.26763100  0.94536458
   0.75593777  0.73236900  0.44536458
   0.24406223  0.73236900  0.44536458
   0.25593777  0.26763100  0.94536458
unknown system                          
           1
     8.061034    0.000000    0.000000
     0.000000    6.033314    0.000000
     0.000000    0.000000    5.959074
   P    S    Li
   2   8   6
Direct configuration=    20
  -0.00000000  0.81712498  0.95655739
   0.50000000  0.18287502  0.45655739
   0.20667847  0.64969153  0.06546013
   0.29332153  0.35030847  0.56546013
   0.70667847  0.35030847  0.56546013
   0.79332153  0.64969153  0.06546013
  -0.00000000  0.81774820  0.61244847
   0.50000000  0.18225180  0.11244847
  -0.00000000  0.13872466  0.06653934
   0.50000000  0.86127534  0.56653934
  -0.00000000  0.20481339  0.53118839
   0.50000000  0.79518661  0.03118839
   0.74455710  0.26874940  0.94552644
   0.75544290  0.73125060  0.44552644
   0.24455710  0.73125060  0.44552644
   0.25544290  0.26874940  0.94552644
unknown system                          
           1
     7.982920    0.000000    0.000000
     0.000000    6.062869    0.000000
     0.000000    0.000000    5.960203
   P    S    Li
   2   8   6
Direct configuration=    21
  -0.00000000  0.81771872  0.95814943
   0.50000000  0.18228128  0.45814943
   0.20866554  0.65187329  0.06711169
   0.29133446  0.34812671  0.56711169
   0.70866554  0.34812671  0.56711169
   0.79133446  0.65187329  0.06711169
  -0.00000000  0.81781473  0.61374250
   0.50000000  0.18218527  0.11374250
  -0.00000000  0.13779815  0.06788276
   0.50000000  0.86220185  0.56788276
  -0.00000000  0.19893200  0.52268470
   0.50000000  0.80106800  0.02268470
   0.74604651  0.27209912  0.94601197
   0.75395349  0.72790088  0.44601197
   0.24604651  0.72790088  0.44601197
   0.25395349  0.27209912  0.94601197
unknown system                          
           1
     7.826693    0.000000    0.000000
     0.000000    6.121980    0.000000
     0.000000    0.000000    5.962461
   P    S    Li
   2   8   6
Direct configuration=    22
  -0.00000000  0.81890040  0.96133291
   0.50000000  0.18109960  0.46133291
   0.21267856  0.65621554  0.07041420
   0.28732144  0.34378446  0.57041420
   0.71267856  0.34378446  0.57041420
   0.78732144  0.65621554  0.07041420
  -0.00000000  0.81794713  0.61633006
   0.50000000  0.18205287  0.11633006
  -0.00000000  0.13595416  0.07056910
   0.50000000  0.86404584  0.57056910
  -0.00000000  0.18722656  0.50568054
   0.50000000  0.81277344  0.00568054
   0.74905448  0.27876590  0.94698285
   0.75094552  0.72123410  0.44698285
   0.24905448  0.72123410  0.44698285
   0.25094552  0.27876590  0.94698285
unknown system                          
           1
     7.514239    0.000000    0.000000
     0.000000    6.240202    0.000000
     0.000000    0.000000    5.966978
   P    S    Li
   2   8   6
Direct configuration=    23
  -0.00000000  0.82124096  0.96769746
   0.50000000  0.17875904  0.46769746
   0.22086482  0.66481619  0.07701671
   0.27913518  0.33518381  0.57701671
   0.72086482  0.33518381  0.57701671
   0.77913518  0.66481619  0.07701671
  -0.00000000  0.81820937  0.62150323
   0.50000000  0.18179063  0.12150323
  -0.00000000  0.13230180  0.07593975
   0.50000000  0.86769820  0.57593975
  -0.00000000  0.16404173  0.47168511
   0.50000000  0.83595827 -0.02831489
   0.75519051  0.29197072  0.94892388
   0.74480949  0.70802928  0.44892388
   0.25519051  0.70802928  0.44892388
   0.24480949  0.29197072  0.94892388
unknown system                          
           1
     7.608776    0.000000    0.000000
     0.000000    6.204432    0.000000
     0.000000    0.000000    5.965611
   P    S    Li
   2   8   6
Direct configuration=    24
  -0.00000000  0.82054621  0.96577323
   0.50000000  0.17945379  0.46577323
   0.21828496  0.66226324  0.07502054
   0.28171504  0.33773676  0.57502054
   0.71828496  0.33773676  0.57502054
   0.78171504  0.66226324  0.07502054
  -0.00000000  0.81813153  0.61993920
   0.50000000  0.18186847  0.11993920
  -0.00000000  0.13338594  0.07431601
   0.50000000  0.86661406  0.57431601
  -0.00000000  0.17092373  0.48196312
   0.50000000  0.82907627 -0.01803688
   0.75325677  0.28805110  0.94833703
   0.74674323  0.71194890  0.44833703
   0.25325677  0.71194890  0.44833703
   0.24674323  0.28805110  0.94833703
unknown system                          
           1
     7.570000    0.000000    0.000000
     0.000000    6.220819    0.000000
     0.000000    0.000000    5.983176
   P    S    Li
   2   8   6
Direct configuration=    25
  -0.00000000  0.82109445  0.96482550
   0.50000000  0.17890555  0.46482550
   0.21933750  0.66353332  0.07415664
   0.28066250  0.33646668  0.57415664
   0.71933750  0.33646668  0.57415664
   0.78066250  0.66353332  0.07415664
  -0.00000000  0.81757751  0.62389213
   0.50000000  0.18242249  0.12389213
  -0.00000000  0.12876852  0.07720028
   0.50000000  0.87123148  0.57720028
  -0.00000000  0.16638127  0.47412634
   0.50000000  0.83361873 -0.02587366
   0.75393326  0.29312709  0.95017459
   0.74606674  0.70687291  0.45017459
   0.25393326  0.70687291  0.45017459
   0.24606674  0.29312709  0.95017459
unknown system                          
           1
     7.531684    0.000000    0.000000
     0.000000    6.237012    0.000000
     0.000000    0.000000    6.000533
   P    S    Li
   2   8   6
Direct configuration=    26
  -0.00000000  0.82163476  0.96389175
   0.50000000  0.17836524  0.46389175
   0.22038290  0.66478504  0.07330549
   0.27961710  0.33521496  0.57330549
   0.72038290  0.33521496  0.57330549
   0.77961710  0.66478504  0.07330549
  -0.00000000  0.81703150  0.62778674
   0.50000000  0.18296850  0.12778674
  -0.00000000  0.12421785  0.08004199
   0.50000000  0.87578215  0.58004199
  -0.00000000  0.16190448  0.46640517
   0.50000000  0.83809552 -0.03359483
   0.75460516  0.29812970  0.95198504
   0.74539484  0.70187030  0.45198504
   0.25460516  0.70187030  0.45198504
   0.24539484  0.29812970  0.95198504
unknown system                          
           1
     7.509666    0.000000    0.000000
     0.000000    6.295605    0.000000
     0.000000    0.000000    6.087824
   P    S    Li
   2   8   6
Direct configuration=    27
  -0.00000000  0.81830297  0.96430250
   0.50000000  0.18169703  0.46430250
   0.22158544  0.66537422  0.07127720
   0.27841456  0.33462578  0.57127720
   0.72158544  0.33462578  0.57127720
   0.77841456  0.66537422  0.07127720
  -0.00000000  0.81631127  0.62850545
   0.50000000  0.18368873  0.12850545
  -0.00000000  0.12090964  0.08339322
   0.50000000  0.87909036  0.58339322
  -0.00000000  0.15776979  0.46031932
   0.50000000  0.84223021 -0.03968068
   0.75489631  0.30510917  0.95481591
   0.74510369  0.69489083  0.45481591
   0.25489631  0.69489083  0.45481591
   0.24510369  0.30510917  0.95481591
unknown system                          
           1
     7.513214    0.000000    0.000000
     0.000000    6.286165    0.000000
     0.000000    0.000000    6.073761
   P    S    Li
   2   8   6
Direct configuration=    28
  -0.00000000  0.81883474  0.96423728
   0.50000000  0.18116526  0.46423728
   0.22139114  0.66528019  0.07159928
   0.27860886  0.33471981  0.57159928
   0.72139114  0.33471981  0.57159928
   0.77860886  0.66528019  0.07159928
  -0.00000000  0.81642623  0.62839132
   0.50000000  0.18357377  0.12839132
  -0.00000000  0.12143765  0.08286106
   0.50000000  0.87856235  0.58286106
  -0.00000000  0.15842971  0.46128572
   0.50000000  0.84157029 -0.03871428
   0.75484927  0.30399521  0.95436639
   0.74515073  0.69600479  0.45436639
   0.25484927  0.69600479  0.45436639
   0.24515073  0.30399521  0.95436639
unknown system                          
           1
     7.509469    0.000000    0.000000
     0.000000    6.300675    0.000000
     0.000000    0.000000    6.077222
   P    S    Li
   2   8   6
Direct configuration=    29
  -0.00000000  0.81826852  0.96347384
   0.50000000  0.18173148  0.46347384
   0.22200937  0.66479025  0.07141371
   0.27799063  0.33520975  0.57141371
   0.72200937  0.33520975  0.57141371
   0.77799063  0.66479025  0.07141371
  -0.00000000  0.81647752  0.62845377
   0.50000000  0.18352248  0.12845377
  -0.00000000  0.12034568  0.08121526
   0.50000000  0.87965432  0.58121526
  -0.00000000  0.15813503  0.46311926
   0.50000000  0.84186497 -0.03688074
   0.75477318  0.30565659  0.95480859
   0.74522682  0.69434341  0.45480859
   0.25477318  0.69434341  0.45480859
   0.24522682  0.30565659  0.95480859
unknown system                          
           1
     7.501711    0.000000    0.000000
     0.000000    6.330742    0.000000
     0.000000    0.000000    6.084394
   P    S    Li
   2   8   6
Direct configuration=    30
  -0.00000000  0.81709788  0.96189271
   0.50000000  0.18290212  0.46189271
   0.22329114  0.66377734  0.07102938
   0.27670886  0.33622266  0.57102938
   0.72329114  0.33622266  0.57102938
   0.77670886  0.66377734  0.07102938
  -0.00000000  0.81658358  0.62858309
   0.50000000  0.18341642  0.12858309
  -0.00000000  0.11808809  0.07780673
   0.50000000  0.88191191  0.57780673
  -0.00000000  0.15752581  0.46691661
   0.50000000  0.84247419 -0.03308339
   0.75461542  0.30909144  0.95572441
   0.74538458  0.69090856  0.45572441
   0.25461542  0.69090856  0.45572441
   0.24538458  0.30909144  0.95572441
unknown system                          
           1
     7.476670    0.000000    0.000000
     0.000000    6.341201    0.000000
     0.000000    0.000000    6.078526
   P    S    Li
   2   8   6
Direct configuration=    31
  -0.00000000  0.81617704  0.96214613
   0.50000000  0.18382296  0.46214613
   0.22312086  0.66381887  0.07077345
   0.27687914  0.33618113  0.57077345
   0.72312086  0.33618113  0.57077345
   0.77687914  0.66381887  0.07077345
  -0.00000000  0.81638264  0.62785826
   0.50000000  0.18361736  0.12785826
  -0.00000000  0.11710937  0.07667292
   0.50000000  0.88289063  0.57667292
  -0.00000000  0.15728601  0.46851940
   0.50000000  0.84271399 -0.03148060
   0.75457275  0.31034426  0.95598156
   0.74542725  0.68965574  0.45598156
   0.25457275  0.68965574  0.45598156
   0.24542725  0.31034426  0.95598156
unknown system                          
           1
     7.458452    0.000000    0.000000
     0.000000    6.348811    0.000000
     0.000000    0.000000    6.074257
   P    S    Li
   2   8   6
Direct configuration=    32
  -0.00000000  0.81550821  0.96233068
   0.50000000  0.18449179  0.46233068
   0.22299656  0.66384904  0.07058707
   0.27700344  0.33615096  0.57058707
   0.72299656  0.33615096  0.57058707
   0.77700344  0.66384904  0.07058707
  -0.00000000  0.81623669  0.62733041
   0.50000000  0.18376331  0.12733041
  -0.00000000  0.11639850  0.07584725
   0.50000000  0.88360150  0.57584725
  -0.00000000  0.15711184  0.46968661
   0.50000000  0.84288816 -0.03031339
   0.75454161  0.31125422  0.95616882
   0.74545839  0.68874578  0.45616882
   0.25454161  0.68874578  0.45616882
   0.24545839  0.31125422  0.95616882
unknown system                          
           1
     7.450314    0.000000    0.000000
     0.000000    6.361944    0.000000
     0.000000    0.000000    6.061351
   P    S    Li
   2   8   6
Direct configuration=    33
  -0.00000000  0.81569452  0.96200913
   0.50000000  0.18430548  0.46200913
   0.22304743  0.66376815  0.07075639
   0.27695257  0.33623185  0.57075639
   0.72304743  0.33623185  0.57075639
   0.77695257  0.66376815  0.07075639
  -0.00000000  0.81587266  0.62660545
   0.50000000  0.18412734  0.12660545
  -0.00000000  0.11587193  0.07580030
   0.50000000  0.88412807  0.57580030
  -0.00000000  0.15682628  0.47043292
   0.50000000  0.84317372 -0.02956708
   0.75461023  0.31180043  0.95617307
   0.74538977  0.68819957  0.45617307
   0.25461023  0.68819957  0.45617307
   0.24538977  0.31180043  0.95617307
unknown system                          
           1
     7.431045    0.000000    0.000000
     0.000000    6.393040    0.000000
     0.000000    0.000000    6.030795
   P    S    Li
   2   8   6
Direct configuration=    34
  -0.00000000  0.81613474  0.96124617
   0.50000000  0.18386526  0.46124617
   0.22316799  0.66357701  0.07115814
   0.27683201  0.33642299  0.57115814
   0.72316799  0.33642299  0.57115814
   0.77683201  0.66357701  0.07115814
  -0.00000000  0.81501255  0.62488535
   0.50000000  0.18498745  0.12488535
  -0.00000000  0.11462777  0.07568891
   0.50000000  0.88537223  0.57568891
  -0.00000000  0.15615157  0.47220368
   0.50000000  0.84384843 -0.02779632
   0.75477289  0.31309100  0.95618316
   0.74522711  0.68690900  0.45618316
   0.25477289  0.68690900  0.45618316
   0.24522711  0.31309100  0.95618316
unknown system                          
           1
     7.436059    0.000000    0.000000
     0.000000    6.403588    0.000000
     0.000000    0.000000    6.029784
   P    S    Li
   2   8   6
Direct configuration=    35
  -0.00000000  0.81638413  0.96138683
   0.50000000  0.18361586  0.46138683
   0.22330357  0.66369393  0.07116230
   0.27669643  0.33630607  0.57116230
   0.72330357  0.33630607  0.57116230
   0.77669643  0.66369393  0.07116230
  -0.00000000  0.81480197  0.62345402
   0.50000000  0.18519803  0.12345402
  -0.00000000  0.11431138  0.07625192
   0.50000000  0.88568862  0.57625192
  -0.00000000  0.15565934  0.47266314
   0.50000000  0.84434066 -0.02733686
   0.75522112  0.31337701  0.95631310
   0.74477888  0.68662299  0.45631310
   0.25522112  0.68662299  0.45631310
   0.24477888  0.31337701  0.95631310
unknown system                          
           1
     7.437126    0.000000    0.000000
     0.000000    6.405832    0.000000
     0.000000    0.000000    6.029569
   P    S    Li
   2   8   6
Direct configuration=    36
  -0.00000000  0.81643711  0.96141676
   0.50000000  0.18356289  0.46141676
   0.22333240  0.66371876  0.07116319
   0.27666760  0.33628124  0.57116319
   0.72333240  0.33628124  0.57116319
   0.77666760  0.66371876  0.07116319
  -0.00000000  0.81475724  0.62314946
   0.50000000  0.18524276  0.12314946
  -0.00000000  0.11424418  0.07637172
   0.50000000  0.88575582  0.57637172
  -0.00000000  0.15555479  0.47276091
   0.50000000  0.84444521 -0.02723909
   0.75531642  0.31343776  0.95634075
   0.74468358  0.68656224  0.45634075
   0.25531642  0.68656224  0.45634075
   0.24468358  0.31343776  0.95634075