  16  16   0   0
  0.1774525E+02  0.7797976E-09  0.6141137E-09  0.5928864E-09  0.5000000E-15
  1.000000000000000E-004
  CAR 
 unknown system                          
     11.28234105    -43.81730992  301      2.87964428      1.00000000
    -43.817  0.0000E+00  0.0000E+00
    -43.634  0.0000E+00  0.0000E+00
    -43.450  0.0000E+00  0.0000E+00
    -43.266  0.0000E+00  0.0000E+00
    -43.083  0.0000E+00  0.0000E+00
    -42.899  0.0000E+00  0.0000E+00
    -42.715  0.0000E+00  0.0000E+00
    -42.532  0.0000E+00  0.0000E+00
    -42.348  0.0000E+00  0.0000E+00
    -42.164  0.0000E+00  0.0000E+00
    -41.981  0.0000E+00  0.0000E+00
    -41.797  0.0000E+00  0.0000E+00
    -41.613  0.0000E+00  0.0000E+00
    -41.430  0.0000E+00  0.0000E+00
    -41.246  0.0000E+00  0.4000E-01
    -41.062  0.0000E+00  0.4000E-01
    -40.879  0.0000E+00  0.4000E-01
    -40.695  0.0000E+00  0.4000E-01
    -40.511  0.0000E+00  0.1200E+00
    -40.328  0.0000E+00  0.1200E+00
    -40.144  0.0000E+00  0.1200E+00
    -39.960  0.0000E+00  0.1200E+00
    -39.777  0.0000E+00  0.1200E+00
    -39.593  0.0000E+00  0.1200E+00
    -39.409  0.0000E+00  0.1200E+00
    -39.226  0.0000E+00  0.1200E+00
    -39.042  0.0000E+00  0.1200E+00
    -38.858  0.0000E+00  0.1200E+00
    -38.675  0.0000E+00  0.1200E+00
    -38.491  0.0000E+00  0.1200E+00
    -38.307  0.0000E+00  0.1200E+00
    -38.124  0.0000E+00  0.1200E+00
    -37.940  0.0000E+00  0.1200E+00
    -37.756  0.0000E+00  0.1200E+00
    -37.573  0.0000E+00  0.1200E+00
    -37.389  0.0000E+00  0.1200E+00
    -37.205  0.0000E+00  0.1200E+00
    -37.022  0.0000E+00  0.1200E+00
    -36.838  0.0000E+00  0.1200E+00
    -36.654  0.0000E+00  0.1200E+00
    -36.471  0.0000E+00  0.1200E+00
    -36.287  0.0000E+00  0.1200E+00
    -36.103  0.0000E+00  0.1200E+00
    -35.920  0.0000E+00  0.1200E+00
    -35.736  0.0000E+00  0.1200E+00
    -35.552  0.0000E+00  0.1200E+00
    -35.369  0.0000E+00  0.1200E+00
    -35.185  0.0000E+00  0.1200E+00
    -35.001  0.0000E+00  0.1200E+00
    -34.818  0.0000E+00  0.1200E+00
    -34.634  0.0000E+00  0.1200E+00
    -34.450  0.0000E+00  0.1200E+00
    -34.267  0.0000E+00  0.1200E+00
    -34.083  0.0000E+00  0.1200E+00
    -33.899  0.0000E+00  0.1200E+00
    -33.716  0.0000E+00  0.1200E+00
    -33.532  0.0000E+00  0.1200E+00
    -33.348  0.0000E+00  0.1200E+00
    -33.165  0.0000E+00  0.1200E+00
    -32.981  0.0000E+00  0.1200E+00
    -32.797  0.0000E+00  0.1200E+00
    -32.614  0.0000E+00  0.1200E+00
    -32.430  0.0000E+00  0.1200E+00
    -32.246  0.0000E+00  0.1200E+00
    -32.063  0.0000E+00  0.1200E+00
    -31.879  0.0000E+00  0.1200E+00
    -31.695  0.0000E+00  0.1200E+00
    -31.512  0.0000E+00  0.1200E+00
    -31.328  0.0000E+00  0.1200E+00
    -31.144  0.0000E+00  0.1200E+00
    -30.961  0.0000E+00  0.1200E+00
    -30.777  0.0000E+00  0.1200E+00
    -30.593  0.0000E+00  0.1200E+00
    -30.410  0.0000E+00  0.1200E+00
    -30.226  0.0000E+00  0.1200E+00
    -30.042  0.0000E+00  0.1200E+00
    -29.859  0.0000E+00  0.1200E+00
    -29.675  0.0000E+00  0.1200E+00
    -29.491  0.0000E+00  0.1200E+00
    -29.308  0.0000E+00  0.1200E+00
    -29.124  0.0000E+00  0.1200E+00
    -28.940  0.0000E+00  0.1200E+00
    -28.757  0.0000E+00  0.1200E+00
    -28.573  0.0000E+00  0.1200E+00
    -28.389  0.0000E+00  0.1200E+00
    -28.206  0.0000E+00  0.1200E+00
    -28.022  0.0000E+00  0.1200E+00
    -27.838  0.0000E+00  0.1200E+00
    -27.655  0.0000E+00  0.1200E+00
    -27.471  0.0000E+00  0.1200E+00
    -27.287  0.0000E+00  0.1200E+00
    -27.104  0.0000E+00  0.1200E+00
    -26.920  0.0000E+00  0.1200E+00
    -26.736  0.0000E+00  0.1200E+00
    -26.553  0.0000E+00  0.1200E+00
    -26.369  0.0000E+00  0.1200E+00
    -26.185  0.0000E+00  0.1200E+00
    -26.002  0.0000E+00  0.1200E+00
    -25.818  0.0000E+00  0.1200E+00
    -25.634  0.0000E+00  0.1200E+00
    -25.451  0.0000E+00  0.1200E+00
    -25.267  0.0000E+00  0.1200E+00
    -25.083  0.0000E+00  0.1200E+00
    -24.900  0.0000E+00  0.1200E+00
    -24.716  0.0000E+00  0.1200E+00
    -24.532  0.0000E+00  0.1200E+00
    -24.349  0.0000E+00  0.1200E+00
    -24.165  0.0000E+00  0.1200E+00
    -23.981  0.0000E+00  0.1200E+00
    -23.798  0.0000E+00  0.1200E+00
    -23.614  0.0000E+00  0.1200E+00
    -23.430  0.0000E+00  0.1200E+00
    -23.247  0.0000E+00  0.1200E+00
    -23.063  0.0000E+00  0.1200E+00
    -22.879  0.0000E+00  0.1200E+00
    -22.696  0.0000E+00  0.1200E+00
    -22.512  0.0000E+00  0.1200E+00
    -22.328  0.0000E+00  0.1200E+00
    -22.145  0.0000E+00  0.1200E+00
    -21.961  0.0000E+00  0.1200E+00
    -21.777  0.0000E+00  0.1200E+00
    -21.594  0.0000E+00  0.1200E+00
    -21.410  0.0000E+00  0.1200E+00
    -21.226  0.0000E+00  0.1200E+00
    -21.043  0.0000E+00  0.1200E+00
    -20.859  0.0000E+00  0.1200E+00
    -20.675  0.0000E+00  0.1200E+00
    -20.492  0.0000E+00  0.1200E+00
    -20.308  0.0000E+00  0.1200E+00
    -20.124  0.0000E+00  0.1200E+00
    -19.941  0.0000E+00  0.1200E+00
    -19.757  0.0000E+00  0.1200E+00
    -19.573  0.0000E+00  0.1200E+00
    -19.390  0.0000E+00  0.1200E+00
    -19.206  0.0000E+00  0.1200E+00
    -19.022  0.0000E+00  0.1200E+00
    -18.839  0.0000E+00  0.1200E+00
    -18.655  0.0000E+00  0.1200E+00
    -18.471  0.0000E+00  0.1200E+00
    -18.288  0.0000E+00  0.1200E+00
    -18.104  0.0000E+00  0.1200E+00
    -17.920  0.0000E+00  0.1200E+00
    -17.737  0.0000E+00  0.1200E+00
    -17.553  0.0000E+00  0.1200E+00
    -17.369  0.0000E+00  0.1200E+00
    -17.186  0.0000E+00  0.1200E+00
    -17.002  0.0000E+00  0.1200E+00
    -16.818  0.0000E+00  0.1200E+00
    -16.635  0.0000E+00  0.1200E+00
    -16.451  0.0000E+00  0.1200E+00
    -16.267  0.0000E+00  0.1200E+00
    -16.084  0.0000E+00  0.1200E+00
    -15.900  0.0000E+00  0.1200E+00
    -15.716  0.0000E+00  0.1200E+00
    -15.533  0.0000E+00  0.1200E+00
    -15.349  0.0000E+00  0.1200E+00
    -15.165  0.0000E+00  0.1200E+00
    -14.982  0.0000E+00  0.1200E+00
    -14.798  0.0000E+00  0.1200E+00
    -14.614  0.0000E+00  0.1200E+00
    -14.431  0.0000E+00  0.1200E+00
    -14.247  0.0000E+00  0.1200E+00
    -14.063  0.0000E+00  0.1200E+00
    -13.880  0.0000E+00  0.1200E+00
    -13.696  0.0000E+00  0.1200E+00
    -13.513  0.0000E+00  0.1200E+00
    -13.329  0.0000E+00  0.1200E+00
    -13.145  0.0000E+00  0.1200E+00
    -12.962  0.0000E+00  0.1200E+00
    -12.778  0.0000E+00  0.1200E+00
    -12.594  0.0000E+00  0.1200E+00
    -12.411  0.0000E+00  0.1200E+00
    -12.227  0.1487E+00  0.1362E+00
    -12.043  0.0000E+00  0.1600E+00
    -11.860  0.0000E+00  0.1600E+00
    -11.676  0.0000E+00  0.1600E+00
    -11.492  0.0000E+00  0.1600E+00
    -11.309  0.0000E+00  0.1600E+00
    -11.125  0.0000E+00  0.1600E+00
    -10.941  0.0000E+00  0.1600E+00
    -10.758  0.0000E+00  0.1600E+00
    -10.574  0.0000E+00  0.1600E+00
    -10.390  0.0000E+00  0.1600E+00
    -10.207  0.0000E+00  0.1600E+00
    -10.023  0.0000E+00  0.1600E+00
     -9.839  0.0000E+00  0.1600E+00
     -9.656  0.0000E+00  0.1600E+00
     -9.472  0.0000E+00  0.1600E+00
     -9.288  0.7381E-01  0.1985E+00
     -9.105  0.1161E+00  0.2334E+00
     -8.921  0.7507E-01  0.2716E+00
     -8.737  0.0000E+00  0.2800E+00
     -8.554  0.0000E+00  0.2800E+00
     -8.370  0.0000E+00  0.2800E+00
     -8.186  0.0000E+00  0.2800E+00
     -8.003  0.0000E+00  0.2800E+00
     -7.819  0.0000E+00  0.2800E+00
     -7.635  0.0000E+00  0.2800E+00
     -7.452  0.0000E+00  0.2800E+00
     -7.268  0.0000E+00  0.2800E+00
     -7.084  0.0000E+00  0.2800E+00
     -6.901  0.0000E+00  0.2800E+00
     -6.717  0.0000E+00  0.2800E+00
     -6.533  0.0000E+00  0.2800E+00
     -6.350  0.0000E+00  0.2800E+00
     -6.166  0.0000E+00  0.2800E+00
     -5.982  0.0000E+00  0.2800E+00
     -5.799  0.0000E+00  0.2800E+00
     -5.615  0.0000E+00  0.2800E+00
     -5.431  0.0000E+00  0.2800E+00
     -5.248  0.1790E-01  0.2816E+00
     -5.064  0.5649E-01  0.2885E+00
     -4.880  0.8058E-01  0.2989E+00
     -4.697  0.8169E-01  0.3193E+00
     -4.513  0.0000E+00  0.3200E+00
     -4.329  0.0000E+00  0.3200E+00
     -4.146  0.0000E+00  0.3200E+00
     -3.962  0.0000E+00  0.3200E+00
     -3.778  0.0000E+00  0.3200E+00
     -3.595  0.0000E+00  0.3200E+00
     -3.411  0.0000E+00  0.3200E+00
     -3.227  0.0000E+00  0.3200E+00
     -3.044  0.0000E+00  0.3200E+00
     -2.860  0.0000E+00  0.3200E+00
     -2.676  0.0000E+00  0.3200E+00
     -2.493  0.0000E+00  0.3200E+00
     -2.309  0.1397E+00  0.3340E+00
     -2.125  0.1756E+00  0.3645E+00
     -1.942  0.9009E-01  0.3931E+00
     -1.758  0.1930E+00  0.4147E+00
     -1.574  0.2156E-01  0.4396E+00
     -1.391  0.0000E+00  0.4400E+00
     -1.207  0.0000E+00  0.4400E+00
     -1.023  0.0000E+00  0.4400E+00
     -0.840  0.0000E+00  0.4400E+00
     -0.656  0.0000E+00  0.4400E+00
     -0.472  0.0000E+00  0.4400E+00
     -0.289  0.0000E+00  0.4400E+00
     -0.105  0.0000E+00  0.4400E+00
      0.079  0.1673E+00  0.4687E+00
      0.262  0.7522E-01  0.4836E+00
      0.446  0.1392E+00  0.5050E+00
      0.630  0.1312E+00  0.5271E+00
      0.813  0.8396E-01  0.5510E+00
      0.997  0.7123E-01  0.5608E+00
      1.181  0.1090E+00  0.5834E+00
      1.364  0.7831E-01  0.6005E+00
      1.548  0.1257E+00  0.6161E+00
      1.732  0.9093E-01  0.6400E+00
      1.915  0.3417E-01  0.6618E+00
      2.099  0.7809E-01  0.6825E+00
      2.283  0.1483E+00  0.7057E+00
      2.466  0.0000E+00  0.7200E+00
      2.650  0.1185E+00  0.7452E+00
      2.834  0.0000E+00  0.7600E+00
      3.017  0.0000E+00  0.7600E+00
      3.201  0.0000E+00  0.7600E+00
      3.385  0.0000E+00  0.7600E+00
      3.568  0.0000E+00  0.7600E+00
      3.752  0.0000E+00  0.7600E+00
      3.936  0.0000E+00  0.7600E+00
      4.119  0.0000E+00  0.7600E+00
      4.303  0.0000E+00  0.7600E+00
      4.487  0.0000E+00  0.7600E+00
      4.670  0.0000E+00  0.7600E+00
      4.854  0.0000E+00  0.7600E+00
      5.038  0.0000E+00  0.7600E+00
      5.221  0.0000E+00  0.7600E+00
      5.405  0.0000E+00  0.7600E+00
      5.589  0.2466E-01  0.7621E+00
      5.772  0.4877E-01  0.7715E+00
      5.956  0.6527E-01  0.7836E+00
      6.140  0.4979E-01  0.7937E+00
      6.323  0.0000E+00  0.8000E+00
      6.507  0.4195E-01  0.8015E+00
      6.691  0.1420E+00  0.8184E+00
      6.874  0.4469E-01  0.8396E+00
      7.058  0.1048E+00  0.8493E+00
      7.242  0.1228E+00  0.8730E+00
      7.425  0.1062E+00  0.8922E+00
      7.609  0.3894E+00  0.9126E+00
      7.793  0.0000E+00  0.9200E+00
      7.976  0.0000E+00  0.9200E+00
      8.160  0.0000E+00  0.9200E+00
      8.344  0.1746E-01  0.9214E+00
      8.527  0.5509E-01  0.9287E+00
      8.711  0.1561E+00  0.9447E+00
      8.895  0.0000E+00  0.9600E+00
      9.078  0.0000E+00  0.9600E+00
      9.262  0.0000E+00  0.9600E+00
      9.446  0.0000E+00  0.9600E+00
      9.629  0.0000E+00  0.9600E+00
      9.813  0.0000E+00  0.9600E+00
      9.997  0.0000E+00  0.9600E+00
     10.180  0.0000E+00  0.9600E+00
     10.364  0.0000E+00  0.9600E+00
     10.548  0.0000E+00  0.9600E+00
     10.731  0.0000E+00  0.9600E+00
     10.915  0.0000E+00  0.9600E+00
     11.099  0.0000E+00  0.9600E+00
     11.282  0.0000E+00  0.9600E+00
