       N       E                     dE             d eps       ncg     rms          rms(c)
DAV:   1     0.499136047993E+03    0.49914E+03   -0.28597E+04   768   0.130E+03
DAV:   2    -0.112883285854E+02   -0.51042E+03   -0.48597E+03   912   0.309E+02
DAV:   3    -0.721216045880E+02   -0.60833E+02   -0.60349E+02  1080   0.968E+01
DAV:   4    -0.785747310282E+02   -0.64531E+01   -0.64301E+01  1400   0.304E+01
DAV:   5    -0.793830655425E+02   -0.80833E+00   -0.80815E+00  1152   0.708E+00    0.231E+01
RMM:   6    -0.773023294229E+02    0.20807E+01   -0.61691E+00   817   0.575E+00    0.152E+01
RMM:   7    -0.768878238518E+02    0.41451E+00   -0.25856E+00   824   0.414E+00    0.397E+00
RMM:   8    -0.768146645821E+02    0.73159E-01   -0.23925E-01   966   0.155E+00    0.581E-01
RMM:   9    -0.768084995954E+02    0.61650E-02   -0.35833E-02   996   0.598E-01    0.238E-01
RMM:  10    -0.768089053490E+02   -0.40575E-03   -0.87102E-03  1203   0.263E-01    0.143E-01
RMM:  11    -0.768093150742E+02   -0.40973E-03   -0.41979E-03  1107   0.159E-01    0.451E-02
RMM:  12    -0.768094917721E+02   -0.17670E-03   -0.20023E-03  1096   0.115E-01    0.225E-02
RMM:  13    -0.768095949258E+02   -0.10315E-03   -0.11162E-03   788   0.840E-02    0.158E-02
RMM:  14    -0.768096438411E+02   -0.48915E-04   -0.54227E-04   865   0.702E-02    0.333E-03
RMM:  15    -0.768096749617E+02   -0.31121E-04   -0.35722E-04   808   0.600E-02    0.337E-03
RMM:  16    -0.768096885248E+02   -0.13563E-04   -0.15985E-04   645   0.510E-02
   1 F= -.76809689E+02 E0= -.76809689E+02  d E =-.768097E+02
       N       E                     dE             d eps       ncg     rms          rms(c)
DAV:   1    -0.768350035659E+02   -0.25329E-01   -0.25565E+00   896   0.711E+00    0.109E+00
RMM:   2    -0.768403244626E+02   -0.53209E-02   -0.13011E-01   953   0.151E+00    0.348E-01
RMM:   3    -0.768377351141E+02    0.25893E-02   -0.10193E-02  1162   0.418E-01    0.277E-01
RMM:   4    -0.768370025336E+02    0.73258E-03   -0.35730E-03  1026   0.192E-01    0.878E-02
RMM:   5    -0.768370726486E+02   -0.70115E-04   -0.11524E-03  1144   0.107E-01    0.494E-02
RMM:   6    -0.768371117453E+02   -0.39097E-04   -0.62758E-04  1070   0.749E-02    0.200E-02
RMM:   7    -0.768371107194E+02    0.10258E-05   -0.28962E-04  1009   0.542E-02    0.119E-02
RMM:   8    -0.768371062511E+02    0.44683E-05    0.14726E-05   472   0.375E-02
   2 F= -.76837106E+02 E0= -.76837106E+02  d E =-.274177E-01
       N       E                     dE             d eps       ncg     rms          rms(c)
DAV:   1    -0.768465084606E+02   -0.93977E-02   -0.36514E+00   792   0.851E+00    0.131E+00
RMM:   2    -0.768537030945E+02   -0.71946E-02   -0.18196E-01   954   0.180E+00    0.415E-01
RMM:   3    -0.768503410360E+02    0.33621E-02   -0.15133E-02  1176   0.504E-01    0.334E-01
RMM:   4    -0.768493365082E+02    0.10045E-02   -0.53508E-03  1052   0.235E-01    0.107E-01
RMM:   5    -0.768494520286E+02   -0.11552E-03   -0.18465E-03  1163   0.134E-01    0.590E-02
RMM:   6    -0.768495156080E+02   -0.63579E-04   -0.10008E-03  1098   0.938E-02    0.233E-02
RMM:   7    -0.768495216869E+02   -0.60789E-05   -0.48800E-04  1077   0.672E-02    0.150E-02
RMM:   8    -0.768495169198E+02    0.47670E-05   -0.10574E-05   532   0.454E-02
   3 F= -.76849517E+02 E0= -.76849517E+02  d E =-.398284E-01
       N       E                     dE             d eps       ncg     rms          rms(c)
DAV:   1    -0.768539475754E+02   -0.44259E-02   -0.20505E+00   784   0.646E+00    0.106E+00
RMM:   2    -0.768638725598E+02   -0.99250E-02   -0.11083E-01   959   0.141E+00    0.264E-01
RMM:   3    -0.768631073749E+02    0.76518E-03   -0.89052E-03  1210   0.393E-01    0.276E-01
RMM:   4    -0.768628624715E+02    0.24490E-03   -0.30314E-03  1136   0.169E-01    0.122E-01
RMM:   5    -0.768629272239E+02   -0.64752E-04   -0.11172E-03  1168   0.106E-01    0.442E-02
RMM:   6    -0.768629636657E+02   -0.36442E-04   -0.45647E-04   976   0.718E-02    0.553E-03
RMM:   7    -0.768629731594E+02   -0.94938E-05   -0.13172E-04   748   0.555E-02
   4 F= -.76862973E+02 E0= -.76862973E+02  d E =-.134562E-01
       N       E                     dE             d eps       ncg     rms          rms(c)
DAV:   1    -0.768626657529E+02    0.29791E-03   -0.19678E-01   896   0.200E+00    0.328E-01
RMM:   2    -0.768636078002E+02   -0.94205E-03   -0.10526E-02   959   0.442E-01    0.779E-02
RMM:   3    -0.768635940998E+02    0.13700E-04   -0.10796E-03  1188   0.133E-01    0.780E-02
RMM:   4    -0.768635823408E+02    0.11759E-04   -0.45103E-04  1095   0.658E-02    0.278E-02
RMM:   5    -0.768635772033E+02    0.51375E-05    0.11199E-05   490   0.426E-02
   5 F= -.76863577E+02 E0= -.76863577E+02  d E =-.140603E-01
       N       E                     dE             d eps       ncg     rms          rms(c)
DAV:   1    -0.768649900444E+02   -0.14077E-02   -0.19336E-01   816   0.209E+00    0.242E-01
RMM:   2    -0.768657135433E+02   -0.72350E-03   -0.89440E-03   972   0.410E-01    0.733E-02
RMM:   3    -0.768657041132E+02    0.94301E-05   -0.11166E-03  1200   0.134E-01    0.691E-02
RMM:   4    -0.768656975596E+02    0.65536E-05   -0.45574E-04  1079   0.678E-02    0.181E-02
RMM:   5    -0.768656929579E+02    0.46017E-05    0.40572E-06   505   0.446E-02
   6 F= -.76865693E+02 E0= -.76865693E+02  d E =-.211575E-02
       N       E                     dE             d eps       ncg     rms          rms(c)
DAV:   1    -0.768642261738E+02    0.14714E-02   -0.81019E-01   800   0.428E+00    0.503E-01
RMM:   2    -0.768672302901E+02   -0.30041E-02   -0.37130E-02   975   0.834E-01    0.151E-01
RMM:   3    -0.768671476338E+02    0.82656E-04   -0.42039E-03  1210   0.261E-01    0.144E-01
RMM:   4    -0.768670899569E+02    0.57677E-04   -0.16357E-03  1104   0.127E-01    0.373E-02
RMM:   5    -0.768671320314E+02   -0.42074E-04   -0.57270E-04  1141   0.799E-02    0.201E-02
RMM:   6    -0.768671469339E+02   -0.14903E-04   -0.33083E-04  1067   0.592E-02    0.492E-03
RMM:   7    -0.768671446964E+02    0.22375E-05   -0.84218E-06   520   0.431E-02
   7 F= -.76867145E+02 E0= -.76867145E+02  d E =-.356749E-02
       N       E                     dE             d eps       ncg     rms          rms(c)
DAV:   1    -0.768678770794E+02   -0.73015E-03   -0.26561E-01   816   0.230E+00    0.350E-01
RMM:   2    -0.768686993000E+02   -0.82222E-03   -0.13461E-02   958   0.489E-01    0.118E-01
RMM:   3    -0.768685315280E+02    0.16777E-03   -0.12938E-03  1172   0.147E-01    0.885E-02
RMM:   4    -0.768685016905E+02    0.29838E-04   -0.45519E-04  1025   0.678E-02    0.227E-02
RMM:   5    -0.768684970067E+02    0.46838E-05   -0.88935E-06   511   0.419E-02
   8 F= -.76868497E+02 E0= -.76868497E+02  d E =-.135231E-02
       N       E                     dE             d eps       ncg     rms          rms(c)
DAV:   1    -0.768681107122E+02    0.39098E-03   -0.11236E-01   896   0.150E+00    0.225E-01
RMM:   2    -0.768684605089E+02   -0.34980E-03   -0.56842E-03   958   0.322E-01    0.757E-02
RMM:   3    -0.768684152273E+02    0.45282E-04   -0.64268E-04  1164   0.102E-01    0.580E-02
RMM:   4    -0.768684061120E+02    0.91154E-05   -0.23882E-04   940   0.501E-02    0.156E-02
RMM:   5    -0.768684020325E+02    0.40794E-05    0.14900E-05   464   0.332E-02
   9 F= -.76868402E+02 E0= -.76868402E+02  d E =-.125734E-02
