 vasp.5.4.4.18Apr17-6-g9f103f2a35 (build Feb 28 2020 14:15:47) complex          
  
 executed on             LinuxIFC date 2022.08.07  08:22:25
 running on   64 total cores
 distrk:  each k-point on   64 cores,    1 groups
 distr:  one band on NCORES_PER_BAND=  16 cores,    4 groups


--------------------------------------------------------------------------------------------------------


 INCAR:
 POTCAR:    PAW P 26Mar2009                       
 POTCAR:    PAW S 27Mar2009                       
 POTCAR:    PAW Li_sv 10Sep2004                   
 POTCAR:    PAW P 26Mar2009                       
   VRHFIN =P : s2p3                                                             
   LEXCH  = CA                                                                  
   EATOM  =   176.5121 eV,   12.9733 Ry                                         
                                                                                
   TITEL  = PAW P 26Mar2009                                                     
   LULTRA =        F    use ultrasoft PP ?                                      
   IUNSCR =        1    unscreen: 0-lin 1-nonlin 2-no                           
   RPACOR =    1.500    partial core radius                                     
   POMASS =   30.974; ZVAL   =    5.000    mass and valenz                      
   RCORE  =    1.900    outmost cutoff radius                                   
   RWIGS  =    2.330; RWIGS  =    1.233    wigner-seitz radius (au A)           
   ENMAX  =  255.155; ENMIN  =  191.366 eV                                      
   ICORE  =        2    local potential                                         
   LCOR   =        T    correct aug charges                                     
   LPAW   =        T    paw PP                                                  
   EAUG   =  342.924                                                            
   DEXC   =    0.000                                                            
   RMAX   =    1.935    core radius for proj-oper                               
   RAUG   =    1.300    factor for augmentation sphere                          
   RDEP   =    1.931    radius for radial grids                                 
   RDEPT  =    1.780    core radius for aug-charge                              
                                                                                
   Atomic configuration                                                         
    6 entries                                                                   
     n  l   j            E        occ.                                          
     1  0  0.50     -2072.7761   2.0000                                         
     2  0  0.50      -172.9483   2.0000                                         
     2  1  1.50      -124.4644   6.0000                                         
     3  0  0.50       -14.0086   2.0000                                         
     3  1  0.50        -5.6037   3.0000                                         
     3  2  1.50        -6.8029   0.0000                                         
   Description                                                                  
     l       E           TYP  RCUT    TYP  RCUT                                 
     0    -14.0086211     23  1.900                                             
     0    -11.8189335     23  1.900                                             
     1     -5.6037292     23  1.900                                             
     1     -0.3527308     23  1.900                                             
     2     -6.8029130     23  1.900                                             
  local pseudopotential read in
  partial core-charges read in
  partial kinetic energy density read in
  atomic valenz-charges read in
  non local Contribution for L=           0  read in
    real space projection operators read in
  non local Contribution for L=           0  read in
    real space projection operators read in
  non local Contribution for L=           1  read in
    real space projection operators read in
  non local Contribution for L=           1  read in
    real space projection operators read in
    PAW grid and wavefunctions read in
 
   number of l-projection  operators is LMAX  =           4
   number of lm-projection operators is LMMAX =           8
 
 POTCAR:    PAW S 27Mar2009                       
   VRHFIN =S : s2p4                                                             
   LEXCH  = CA                                                                  
   EATOM  =   277.3745 eV,   20.3864 Ry                                         
                                                                                
   TITEL  = PAW S 27Mar2009                                                     
   LULTRA =        F    use ultrasoft PP ?                                      
   IUNSCR =        1    unscreen: 0-lin 1-nonlin 2-no                           
   RPACOR =    1.500    partial core radius                                     
   POMASS =   32.066; ZVAL   =    6.000    mass and valenz                      
   RCORE  =    1.900    outmost cutoff radius                                   
   RWIGS  =    2.200; RWIGS  =    1.164    wigner-seitz radius (au A)           
   ENMAX  =  258.602; ENMIN  =  193.952 eV                                      
   ICORE  =        2    local potential                                         
   LCOR   =        T    correct aug charges                                     
   LPAW   =        T    paw PP                                                  
   EAUG   =  335.092                                                            
   DEXC   =    0.000                                                            
   RMAX   =    1.942    core radius for proj-oper                               
   RAUG   =    1.300    factor for augmentation sphere                          
   RDEP   =    1.954    radius for radial grids                                 
   RDEPT  =    1.744    core radius for aug-charge                              
                                                                                
   Atomic configuration                                                         
    6 entries                                                                   
     n  l   j            E        occ.                                          
     1  0  0.50     -2393.1495   2.0000                                         
     2  0  0.50      -210.5411   2.0000                                         
     2  1  1.50      -156.4410   6.0000                                         
     3  0  0.50       -17.2664   2.0000                                         
     3  1  0.50        -7.1129   4.0000                                         
     3  2  1.50        -8.1635   0.0000                                         
   Description                                                                  
     l       E           TYP  RCUT    TYP  RCUT                                 
     0    -17.2664422     23  1.900                                             
     0    -15.8420823     23  1.900                                             
     1     -7.1129072     23  1.900                                             
     1     -2.8398274     23  1.900                                             
     2     -8.1634956     23  1.900                                             
  local pseudopotential read in
  partial core-charges read in
  partial kinetic energy density read in
  atomic valenz-charges read in
  non local Contribution for L=           0  read in
    real space projection operators read in
  non local Contribution for L=           0  read in
    real space projection operators read in
  non local Contribution for L=           1  read in
    real space projection operators read in
  non local Contribution for L=           1  read in
    real space projection operators read in
    PAW grid and wavefunctions read in
 
   number of l-projection  operators is LMAX  =           4
   number of lm-projection operators is LMMAX =           8
 
 POTCAR:    PAW Li_sv 10Sep2004                   
   VRHFIN =Li: 1s2s                                                             
   LEXCH  = CA                                                                  
   EATOM  =   199.5738 eV,   14.6683 Ry                                         
                                                                                
   TITEL  = PAW Li_sv 10Sep2004                                                 
   LULTRA =        F    use ultrasoft PP ?                                      
   IUNSCR =        0    unscreen: 0-lin 1-nonlin 2-no                           
   RPACOR =    0.000    partial core radius                                     
   POMASS =    7.010; ZVAL   =    3.000    mass and valenz                      
   RCORE  =    1.700    outmost cutoff radius                                   
   RWIGS  =    2.050; RWIGS  =    1.085    wigner-seitz radius (au A)           
   ENMAX  =  498.387; ENMIN  =  373.790 eV                                      
   ICORE  =        2    local potential                                         
   LCOR   =        T    correct aug charges                                     
   LPAW   =        T    paw PP                                                  
   EAUG   =  628.945                                                            
   RMAX   =    1.732    core radius for proj-oper                               
   RAUG   =    1.300    factor for augmentation sphere                          
   RDEP   =    1.728    radius for radial grids                                 
   RDEPT  =    1.329    core radius for aug-charge                              
                                                                                
   Atomic configuration                                                         
    4 entries                                                                   
     n  l   j            E        occ.                                          
     1  0  0.50       -51.0884   2.0000                                         
     2  0  0.50        -2.8766   1.0000                                         
     2  1  0.50        -2.8708   0.0000                                         
     3  2  1.50        -1.3606   0.0000                                         
   Description                                                                  
     l       E           TYP  RCUT    TYP  RCUT                                 
     0    -51.0884324     23  1.400                                             
     0     -2.8766458     23  1.700                                             
     1     -2.8708293     23  1.400                                             
     2     -1.3605826     23  1.400                                             
  local pseudopotential read in
  atomic valenz-charges read in
  non local Contribution for L=           0  read in
    real space projection operators read in
  non local Contribution for L=           0  read in
    real space projection operators read in
  non local Contribution for L=           1  read in
    real space projection operators read in
    PAW grid and wavefunctions read in
 
   number of l-projection  operators is LMAX  =           3
   number of lm-projection operators is LMMAX =           5
 
 Optimization of the real space projectors (new method)

 maximal supplied QI-value         = 19.84
 optimisation between [QCUT,QGAM] = [ 10.32, 20.83] = [ 29.81,121.55] Ry 
 Optimized for a Real-space Cutoff    1.39 Angstroem

   l    n(q)    QCUT    max X(q) W(low)/X(q) W(high)/X(q)  e(spline) 
   0      9    10.318   158.476    0.64E-04    0.80E-04    0.60E-07
   0      9    10.318   128.097    0.63E-04    0.79E-04    0.60E-07
   1      8    10.318    73.217    0.18E-03    0.19E-03    0.20E-06
   1      8    10.318    48.248    0.18E-03    0.19E-03    0.19E-06
 Optimization of the real space projectors (new method)

 maximal supplied QI-value         = 19.84
 optimisation between [QCUT,QGAM] = [ 10.32, 20.83] = [ 29.81,121.55] Ry 
 Optimized for a Real-space Cutoff    1.39 Angstroem

   l    n(q)    QCUT    max X(q) W(low)/X(q) W(high)/X(q)  e(spline) 
   0      9    10.318   180.455    0.73E-04    0.81E-04    0.62E-07
   0      9    10.318   157.733    0.72E-04    0.81E-04    0.62E-07
   1      8    10.318    66.201    0.18E-03    0.20E-03    0.20E-06
   1      8    10.318    49.617    0.18E-03    0.20E-03    0.20E-06
 Optimization of the real space projectors (new method)

 maximal supplied QI-value         = 22.11
 optimisation between [QCUT,QGAM] = [ 10.39, 20.78] = [ 30.24,120.96] Ry 
 Optimized for a Real-space Cutoff    1.20 Angstroem

   l    n(q)    QCUT    max X(q) W(low)/X(q) W(high)/X(q)  e(spline) 
   0      7    10.392    10.443    0.77E-04    0.41E-05    0.30E-07
   0      7    10.392     8.514    0.20E-03    0.36E-04    0.67E-07
   1      7    10.392     5.406    0.20E-03    0.20E-03    0.12E-06
  PAW P 26Mar2009                       :
 energy of atom  1       EATOM= -176.5121
 kinetic energy error for atom=    0.0021 (will be added to EATOM!!)
  PAW S 27Mar2009                       :
 energy of atom  2       EATOM= -277.3745
 kinetic energy error for atom=    0.0041 (will be added to EATOM!!)
  PAW Li_sv 10Sep2004                   :
 energy of atom  3       EATOM= -199.5738
 kinetic energy error for atom=    0.0564 (will be added to EATOM!!)
 
 
 POSCAR: Good luck                               
  positions in cartesian coordinates
  No initial velocities read in
 exchange correlation table for  LEXCH =        2
   RHO(1)=    0.500       N(1)  =     2000
   RHO(2)=  100.500       N(2)  =     4000
 


--------------------------------------------------------------------------------------------------------


 ion  position               nearest neighbor table
   1  0.000  0.771  0.503-   7 2.03   9 2.03   3 2.04   6 2.04
   2  0.500  0.229  0.003-   8 2.03  10 2.03   4 2.04   5 2.04
   3  0.208  0.600  0.392-   1 2.04  14 2.40  13 2.43  12 2.57  11 2.63
   4  0.292  0.400  0.892-   2 2.04  13 2.40  14 2.43  11 2.57  12 2.63
   5  0.708  0.400  0.892-   2 2.04  16 2.40  15 2.43  11 2.57  12 2.63
   6  0.792  0.600  0.392-   1 2.04  15 2.40  16 2.43  12 2.57  11 2.63
   7  0.000  0.061  0.338-   1 2.03  15 2.39  14 2.39
   8  0.500  0.939  0.838-   2 2.03  16 2.39  13 2.39
   9  0.000  0.821  0.841-   1 2.03  13 2.38  16 2.38
  10  0.500  0.179  0.341-   2 2.03  14 2.38  15 2.38
  11  0.000  0.432  0.090-   5 2.57   4 2.57   3 2.63   6 2.63
  12  0.500  0.568  0.590-   6 2.57   3 2.57   5 2.63   4 2.63
  13  0.267  0.766  0.028-   9 2.38   8 2.39   4 2.40   3 2.43
  14  0.233  0.234  0.528-  10 2.38   7 2.39   3 2.40   4 2.43
  15  0.767  0.234  0.528-  10 2.38   7 2.39   6 2.40   5 2.43
  16  0.733  0.766  0.028-   9 2.38   8 2.39   5 2.40   6 2.43
 
  LATTYP: Found a simple orthorhombic cell.
 ALAT       =     5.9288638322
 B/A-ratio  =     1.0358033566
 C/A-ratio  =     1.3152563941
  
  Lattice vectors:
  
 A1 = (   0.0000000000,   0.0000000000,  -5.9288638322)
 A2 = (   0.0000000000,  -6.1411370583,   0.0000000000)
 A3 = (  -7.7979760653,   0.0000000000,   0.0000000000)


Analysis of symmetry for initial positions (statically):
=====================================================================
 Subroutine PRICEL returns:
 Original cell was already a primitive cell.
 

 Routine SETGRP: Setting up the symmetry group for a 
 simple orthorhombic supercell.


 Subroutine GETGRP returns: Found  4 space group operations
 (whereof  2 operations were pure point group operations)
 out of a pool of  8 trial point group operations.


The static configuration has the point symmetry C_1h.
 The point group associated with its full space group is C_2v.


Analysis of symmetry for dynamics (positions and initial velocities):
=====================================================================
 Subroutine PRICEL returns:
 Original cell was already a primitive cell.
 

 Routine SETGRP: Setting up the symmetry group for a 
 simple orthorhombic supercell.


 Subroutine GETGRP returns: Found  4 space group operations
 (whereof  2 operations were pure point group operations)
 out of a pool of  8 trial point group operations.


The dynamic configuration has the point symmetry C_1h.
 The point group associated with its full space group is C_2v.


 Subroutine INISYM returns: Found  4 space group operations
 (whereof  2 operations are pure point group operations),
 and found     1 'primitive' translations

 
 
 KPOINTS: Automatic mesh                          

Automatic generation of k-mesh.
Space group operators:
 irot       det(A)        alpha          n_x          n_y          n_z        tau_x        tau_y        tau_z
    1     1.000000     0.000001     1.000000     0.000000     0.000000     0.000000     0.000000     0.000000
    2    -1.000000   179.999999     1.000000     0.000000     0.000000     0.000000     0.000000     0.000000
    3    -1.000000   180.000000     0.000000     1.000000     0.000000    -0.500000     0.000000    -0.500000
    4     1.000000   180.000000     0.000000     0.000000     1.000000    -0.500000     0.000000    -0.500000
 
 Subroutine IBZKPT returns following result:
 ===========================================
 
 Found      8 irreducible k-points:
 
 Following reciprocal coordinates:
            Coordinates               Weight
  0.125000  0.125000  0.125000      8.000000
  0.375000  0.125000  0.125000      8.000000
  0.125000  0.375000  0.125000      8.000000
  0.375000  0.375000  0.125000      8.000000
  0.125000  0.125000  0.375000      8.000000
  0.375000  0.125000  0.375000      8.000000
  0.125000  0.375000  0.375000      8.000000
  0.375000  0.375000  0.375000      8.000000
 
 Following cartesian coordinates:
            Coordinates               Weight
  0.016030  0.020355  0.021083      8.000000
  0.048089  0.020355  0.021083      8.000000
  0.016030  0.061064  0.021083      8.000000
  0.048089  0.061064  0.021083      8.000000
  0.016030  0.020355  0.063250      8.000000
  0.048089  0.020355  0.063250      8.000000
  0.016030  0.061064  0.063250      8.000000
  0.048089  0.061064  0.063250      8.000000
 
 TETIRR: Found    140 inequivalent tetrahedra from      384


--------------------------------------------------------------------------------------------------------




 Dimension of arrays:
   k-points           NKPTS =      8   k-points in BZ     NKDIM =      8   number of bands    NBANDS=     48
   number of dos      NEDOS =    301   number of ions     NIONS =     16
   non local maximal  LDIM  =      4   non local SUM 2l+1 LMDIM =      8
   total plane-waves  NPLWV =  90720
   max r-space proj   IRMAX =   3626   max aug-charges    IRDMAX=  10265
   dimension x,y,z NGX =    54 NGY =   42 NGZ =   40
   dimension x,y,z NGXF=   108 NGYF=   84 NGZF=   80
   support grid    NGXF=   108 NGYF=   84 NGZF=   80
   ions per type =               2   8   6
   NGX,Y,Z   is equivalent  to a cutoff of  11.51, 11.37, 11.22 a.u.
   NGXF,Y,Z  is equivalent  to a cutoff of  23.02, 22.74, 22.43 a.u.

 SYSTEM =  unknown system                          
 POSCAR =  Good luck                               

 Startparameter for this run:
   NWRITE =      2    write-flag & timer
   PREC   = accura    normal or accurate (medium, high low for compatibility)
   ISTART =      0    job   : 0-new  1-cont  2-samecut
   ICHARG =      2    charge: 1-file 2-atom 10-const
   ISPIN  =      1    spin polarized calculation?
   LNONCOLLINEAR =      F non collinear calculations
   LSORBIT =      F    spin-orbit coupling
   INIWAV =      1    electr: 0-lowe 1-rand  2-diag
   LASPH  =      F    aspherical Exc in radial PAW
   METAGGA=      F    non-selfconsistent MetaGGA calc.

 Electronic Relaxation 1
   ENCUT  =  420.0 eV  30.87 Ry    5.56 a.u.  13.03 10.26  9.91*2*pi/ulx,y,z
   ENINI  =  420.0     initial cutoff
   ENAUG  =  628.9 eV  augmentation charge cutoff
   NELM   =    100;   NELMIN=  2; NELMDL= -5     # of ELM steps 
   EDIFF  = 0.2E-04   stopping-criterion for ELM
   LREAL  =      T    real-space projection
   NLSPLINE    = F    spline interpolate recip. space projectors
   LCOMPAT=      F    compatible to vasp.4.4
   GGA_COMPAT  = T    GGA compatible to vasp.4.4-vasp.4.6
   LMAXPAW     = -100 max onsite density
   LMAXMIX     =    2 max onsite mixed and CHGCAR
   VOSKOWN=      0    Vosko Wilk Nusair interpolation
   ROPT   =   -0.00025  -0.00025  -0.00025
 Ionic relaxation
   EDIFFG = 0.2E-03   stopping-criterion for IOM
   NSW    =    100    number of steps for IOM
   NBLOCK =      1;   KBLOCK =    100    inner block; outer block 
   IBRION =      2    ionic relax: 0-MD 1-quasi-New 2-CG
   NFREE  =      1    steps in history (QN), initial steepest desc. (CG)
   ISIF   =      3    stress and relaxation
   IWAVPR =     11    prediction:  0-non 1-charg 2-wave 3-comb
   ISYM   =      2    0-nonsym 1-usesym 2-fastsym
   LCORR  =      T    Harris-Foulkes like correction to forces

   POTIM  = 0.5000    time-step for ionic-motion
   TEIN   =    0.0    initial temperature
   TEBEG  =    0.0;   TEEND  =   0.0 temperature during run
   SMASS  =  -3.00    Nose mass-parameter (am)
   estimated Nose-frequenzy (Omega)   =  0.10E-29 period in steps =****** mass=  -0.139E-26a.u.
   SCALEE = 1.0000    scale energy and forces
   NPACO  =    256;   APACO  = 16.0  distance and # of slots for P.C.
   PSTRESS=    0.0 pullay stress

  Mass of Ions in am
   POMASS =  30.97 32.07  7.01
  Ionic Valenz
   ZVAL   =   5.00  6.00  3.00
  Atomic Wigner-Seitz radii
   RWIGS  =  -1.00 -1.00 -1.00
  virtual crystal weights 
   VCA    =   1.00  1.00  1.00
   NELECT =      76.0000    total number of electrons
   NUPDOWN=      -1.0000    fix difference up-down

 DOS related values:
   EMIN   =  10.00;   EMAX   =-10.00  energy-range for DOS
   EFERMI =   0.00
   ISMEAR =    -5;   SIGMA  =   0.20  broadening in eV -4-tet -1-fermi 0-gaus

 Electronic relaxation 2 (details)
   IALGO  =     68    algorithm
   LDIAG  =      T    sub-space diagonalisation (order eigenvalues)
   LSUBROT=      F    optimize rotation matrix (better conditioning)
   TURBO    =      0    0=normal 1=particle mesh
   IRESTART =      0    0=no restart 2=restart with 2 vectors
   NREBOOT  =      0    no. of reboots
   NMIN     =      0    reboot dimension
   EREF     =   0.00    reference energy to select bands
   IMIX   =      4    mixing-type and parameters
     AMIX     =   0.40;   BMIX     =  1.00
     AMIX_MAG =   1.60;   BMIX_MAG =  1.00
     AMIN     =   0.10
     WC   =   100.;   INIMIX=   1;  MIXPRE=   1;  MAXMIX= -45

 Intra band minimization:
   WEIMIN = 0.0010     energy-eigenvalue tresh-hold
   EBREAK =  0.10E-06  absolut break condition
   DEPER  =   0.30     relativ break condition  

   TIME   =   0.40     timestep for ELM

  volume/ion in A,a.u.               =      17.75       119.75
  Fermi-wavevector in a.u.,A,eV,Ry     =   1.055064  1.993781 15.145450  1.113159
  Thomas-Fermi vector in A             =   2.190248
 
 Write flags
   LWAVE        =      F    write WAVECAR
   LDOWNSAMPLE  =      F    k-point downsampling of WAVECAR
   LCHARG       =      F    write CHGCAR
   LVTOT        =      F    write LOCPOT, total local potential
   LVHAR        =      F    write LOCPOT, Hartree potential only
   LELF         =      F    write electronic localiz. function (ELF)
   LORBIT       =      0    0 simple, 1 ext, 2 COOP (PROOUT), +10 PAW based schemes


 Dipole corrections
   LMONO  =      F    monopole corrections only (constant potential shift)
   LDIPOL =      F    correct potential (dipole corrections)
   IDIPOL =      0    1-x, 2-y, 3-z, 4-all directions 
   EPSILON=  1.0000000 bulk dielectric constant

 Exchange correlation treatment:
   GGA     =    --    GGA type
   LEXCH   =     2    internal setting for exchange type
   VOSKOWN=      0    Vosko Wilk Nusair interpolation
   LHFCALC =     F    Hartree Fock is set to
   LHFONE  =     F    Hartree Fock one center treatment
   AEXX    =    0.0000 exact exchange contribution

 Linear response parameters
   LEPSILON=     F    determine dielectric tensor
   LRPA    =     F    only Hartree local field effects (RPA)
   LNABLA  =     F    use nabla operator in PAW spheres
   LVEL    =     F    velocity operator in full k-point grid
   LINTERFAST=   F  fast interpolation
   KINTER  =     0    interpolate to denser k-point grid
   CSHIFT  =0.1000    complex shift for real part using Kramers Kronig
   OMEGAMAX=  -1.0    maximum frequency
   DEG_THRESHOLD= 0.2000000E-02 threshold for treating states as degnerate
   RTIME   =   -0.100 relaxation time in fs
  (WPLASMAI=    0.000 imaginary part of plasma frequency in eV, 0.658/RTIME)
   DFIELD  = 0.0000000 0.0000000 0.0000000 field for delta impulse in time
 
 Orbital magnetization related:
   ORBITALMAG=     F  switch on orbital magnetization
   LCHIMAG   =     F  perturbation theory with respect to B field
   DQ        =  0.001000  dq finite difference perturbation B field
   LLRAUG    =     F  two centre corrections for induced B field



--------------------------------------------------------------------------------------------------------


 conjugate gradient relaxation of ions
 charge density and potential will be updated during run
 non-spin polarized calculation
 RMM-DIIS sequential band-by-band and
  variant of blocked Davidson during initial phase
 perform sub-space diagonalisation
    before iterative eigenvector-optimisation
 modified Broyden-mixing scheme, WC =      100.0
 initial mixing is a Kerker type mixing with AMIX =  0.4000 and BMIX =      1.0000
 Hartree-type preconditioning will be used
 using additional bands           10
 real space projection scheme for non local part
 use partial core corrections
 calculate Harris-corrections to forces 
   (improved forces if not selfconsistent)
 use of overlap-Matrix (Vanderbilt PP)
 Fermi weights with tetrahedron method with Bloechl corrections


--------------------------------------------------------------------------------------------------------


  energy-cutoff  :      420.00
  volume of cell :      283.92
      direct lattice vectors                 reciprocal lattice vectors
     7.797976065  0.000000000  0.000000000     0.128238403  0.000000000  0.000000000
     0.000000000  6.141137058  0.000000000     0.000000000  0.162836294  0.000000000
     0.000000000  0.000000000  5.928863832     0.000000000  0.000000000  0.168666380

  length of vectors
     7.797976065  6.141137058  5.928863832     0.128238403  0.162836294  0.168666380


 
 k-points in units of 2pi/SCALE and weight: Automatic mesh                          
   0.01602980  0.02035454  0.02108330       0.125
   0.04808940  0.02035454  0.02108330       0.125
   0.01602980  0.06106361  0.02108330       0.125
   0.04808940  0.06106361  0.02108330       0.125
   0.01602980  0.02035454  0.06324989       0.125
   0.04808940  0.02035454  0.06324989       0.125
   0.01602980  0.06106361  0.06324989       0.125
   0.04808940  0.06106361  0.06324989       0.125
 
 k-points in reciprocal lattice and weights: Automatic mesh                          
   0.12500000  0.12500000  0.12500000       0.125
   0.37500000  0.12500000  0.12500000       0.125
   0.12500000  0.37500000  0.12500000       0.125
   0.37500000  0.37500000  0.12500000       0.125
   0.12500000  0.12500000  0.37500000       0.125
   0.37500000  0.12500000  0.37500000       0.125
   0.12500000  0.37500000  0.37500000       0.125
   0.37500000  0.37500000  0.37500000       0.125
 
 position of ions in fractional coordinates (direct lattice) 
   0.00000000  0.77140956  0.50264493
   0.50000000  0.22859044  0.00264493
   0.20817983  0.60012918  0.39229410
   0.29182017  0.39987082  0.89229410
   0.70817983  0.39987082  0.89229410
   0.79182017  0.60012918  0.39229410
   0.00000000  0.06119827  0.33827546
   0.50000000  0.93880173  0.83827546
   0.00000000  0.82086106  0.84111600
   0.50000000  0.17913894  0.34111600
   0.00000000  0.43229912  0.08997410
   0.50000000  0.56770088  0.58997410
   0.26660455  0.76597110  0.02819397
   0.23339545  0.23402890  0.52819397
   0.76660455  0.23402890  0.52819397
   0.73339545  0.76597110  0.02819397
 
 position of ions in cartesian coordinates  (Angst):
   0.00000000  4.73733183  2.98011335
   3.89898803  1.40380523  0.01568143
   1.62338134  3.68547556  2.32585828
   2.27560669  2.45566150  5.29029020
   5.52236938  2.45566150  5.29029020
   6.17459472  3.68547556  2.32585828
   0.00000000  0.37582695  2.00558916
   3.89898803  5.76531011  4.97002108
   0.00000000  5.04102025  4.98686221
   3.89898803  1.10011681  2.02243029
   0.00000000  2.65480812  0.53344422
   3.89898803  3.48632894  3.49787613
   2.07897591  4.70393348  0.16715823
   1.82001212  1.43720358  3.13159015
   5.97796394  1.43720358  3.13159015
   5.71900016  4.70393348  0.16715823
 


--------------------------------------------------------------------------------------------------------


 k-point  1 :   0.1250 0.1250 0.1250  plane waves:    5551
 k-point  2 :   0.3750 0.1250 0.1250  plane waves:    5534
 k-point  3 :   0.1250 0.3750 0.1250  plane waves:    5539
 k-point  4 :   0.3750 0.3750 0.1250  plane waves:    5547
 k-point  5 :   0.1250 0.1250 0.3750  plane waves:    5551
 k-point  6 :   0.3750 0.1250 0.3750  plane waves:    5563
 k-point  7 :   0.1250 0.3750 0.3750  plane waves:    5553
 k-point  8 :   0.3750 0.3750 0.3750  plane waves:    5556

 maximum and minimum number of plane-waves per node :       358      332

 maximum number of plane-waves:      5563
 maximum index in each direction: 
   IXMAX=   12   IYMAX=   10   IZMAX=    9
   IXMIN=  -13   IYMIN=  -10   IZMIN=  -10


 real space projection operators:
  total allocation   :       2692.17 KBytes
  max/ min on nodes  :        205.62        145.16


 parallel 3D FFT for wavefunctions:
    minimum data exchange during FFTs selected (reduces bandwidth)
 parallel 3D FFT for charge:
    minimum data exchange during FFTs selected (reduces bandwidth)


 total amount of memory used by VASP MPI-rank0    33595. kBytes
=======================================================================

   base      :      30000. kBytes
   nonlr-proj:       1230. kBytes
   fftplans  :        656. kBytes
   grid      :       1147. kBytes
   one-center:          3. kBytes
   wavefun   :        559. kBytes
 
     INWAV:  cpu time    0.0000: real time    0.0000
 Broyden mixing: mesh for mixing (old mesh)
   NGX = 27   NGY = 21   NGZ = 19
  (NGX  =108   NGY  = 84   NGZ  = 80)
  gives a total of  10773 points

 initial charge density was supplied:
 charge density of overlapping atoms calculated
 number of electron      76.0000000 magnetization 
 keeping initial charge density in first step


--------------------------------------------------------------------------------------------------------


 Maximum index for non-local projection operator          437
 Maximum index for augmentation-charges          547 (set IRDMAX)


--------------------------------------------------------------------------------------------------------


 First call to EWALD:  gamma=   0.270
 Maximum number of real-space cells 2x 3x 3
 Maximum number of reciprocal cells 3x 3x 3

    FEWALD:  cpu time    0.0016: real time    0.0017


--------------------------------------- Iteration      1(   1)  ---------------------------------------


    POTLOK:  cpu time    0.0056: real time    0.0078
    SETDIJ:  cpu time    0.0038: real time    0.0045
     EDDAV:  cpu time    0.2017: real time    0.2102
 BZINTS: Fermi energy: 15.073482; 76.000000 electrons
         Band energy:-108.953603;  BLOECHL correction:  0.000000
       DOS:  cpu time    0.0019: real time    0.0026
    --------------------------------------------
      LOOP:  cpu time    0.2131: real time    0.2252

 eigenvalue-minimisations  :   768
 total energy-change (2. order) : 0.4991360E+03  (-0.2859728E+04)
 number of electron      76.0000000 magnetization 
 augmentation part       76.0000000 magnetization 

 Free energy of the ion-electron system (eV)
  ---------------------------------------------------
  alpha Z        PSCENC =        69.50083658
  Ewald energy   TEWEN  =     -2739.87824047
  -Hartree energ DENC   =      -625.80553222
  -exchange      EXHF   =         0.00000000
  -V(xc)+E(xc)   XCENC  =       182.08248366
  PAW double counting   =      2494.22442938    -2541.12215007
  entropy T*S    EENTRO =         0.00000000
  eigenvalues    EBANDS =      -108.95360264
  atomic energy  EATOM  =      3769.08782378
  Solvation  Ediel_sol  =         0.00000000
  ---------------------------------------------------
  free energy    TOTEN  =       499.13604799 eV

  energy without entropy =      499.13604799  energy(sigma->0) =      499.13604799


--------------------------------------------------------------------------------------------------------




--------------------------------------- Iteration      1(   2)  ---------------------------------------


     EDDAV:  cpu time    0.1989: real time    0.1989
 BZINTS: Fermi energy:  5.070319; 76.000000 electrons
         Band energy:-619.377979;  BLOECHL correction:  0.000000
       DOS:  cpu time    0.0013: real time    0.0013
    --------------------------------------------
      LOOP:  cpu time    0.2002: real time    0.2002

 eigenvalue-minimisations  :   912
 total energy-change (2. order) :-0.5104244E+03  (-0.4859667E+03)
 number of electron      76.0000000 magnetization 
 augmentation part       76.0000000 magnetization 

 Free energy of the ion-electron system (eV)
  ---------------------------------------------------
  alpha Z        PSCENC =        69.50083658
  Ewald energy   TEWEN  =     -2739.87824047
  -Hartree energ DENC   =      -625.80553222
  -exchange      EXHF   =         0.00000000
  -V(xc)+E(xc)   XCENC  =       182.08248366
  PAW double counting   =      2494.22442938    -2541.12215007
  entropy T*S    EENTRO =         0.00000000
  eigenvalues    EBANDS =      -619.37797922
  atomic energy  EATOM  =      3769.08782378
  Solvation  Ediel_sol  =         0.00000000
  ---------------------------------------------------
  free energy    TOTEN  =       -11.28832859 eV

  energy without entropy =      -11.28832859  energy(sigma->0) =      -11.28832859


--------------------------------------------------------------------------------------------------------




--------------------------------------- Iteration      1(   3)  ---------------------------------------


     EDDAV:  cpu time    0.2200: real time    0.2200
 BZINTS: Fermi energy:  2.145526; 76.000000 electrons
         Band energy:-680.211255;  BLOECHL correction:  0.000000
       DOS:  cpu time    0.0012: real time    0.0012
    --------------------------------------------
      LOOP:  cpu time    0.2213: real time    0.2213

 eigenvalue-minimisations  :  1080
 total energy-change (2. order) :-0.6083328E+02  (-0.6034911E+02)
 number of electron      76.0000000 magnetization 
 augmentation part       76.0000000 magnetization 

 Free energy of the ion-electron system (eV)
  ---------------------------------------------------
  alpha Z        PSCENC =        69.50083658
  Ewald energy   TEWEN  =     -2739.87824047
  -Hartree energ DENC   =      -625.80553222
  -exchange      EXHF   =         0.00000000
  -V(xc)+E(xc)   XCENC  =       182.08248366
  PAW double counting   =      2494.22442938    -2541.12215007
  entropy T*S    EENTRO =         0.00000000
  eigenvalues    EBANDS =      -680.21125522
  atomic energy  EATOM  =      3769.08782378
  Solvation  Ediel_sol  =         0.00000000
  ---------------------------------------------------
  free energy    TOTEN  =       -72.12160459 eV

  energy without entropy =      -72.12160459  energy(sigma->0) =      -72.12160459


--------------------------------------------------------------------------------------------------------




--------------------------------------- Iteration      1(   4)  ---------------------------------------


     EDDAV:  cpu time    0.2723: real time    0.2737
 BZINTS: Fermi energy:  2.026799; 76.000000 electrons
         Band energy:-686.664382;  BLOECHL correction:  0.000000
       DOS:  cpu time    0.0012: real time    0.0012
    --------------------------------------------
      LOOP:  cpu time    0.2735: real time    0.2749

 eigenvalue-minimisations  :  1400
 total energy-change (2. order) :-0.6453126E+01  (-0.6430125E+01)
 number of electron      76.0000000 magnetization 
 augmentation part       76.0000000 magnetization 

 Free energy of the ion-electron system (eV)
  ---------------------------------------------------
  alpha Z        PSCENC =        69.50083658
  Ewald energy   TEWEN  =     -2739.87824047
  -Hartree energ DENC   =      -625.80553222
  -exchange      EXHF   =         0.00000000
  -V(xc)+E(xc)   XCENC  =       182.08248366
  PAW double counting   =      2494.22442938    -2541.12215007
  entropy T*S    EENTRO =         0.00000000
  eigenvalues    EBANDS =      -686.66438166
  atomic energy  EATOM  =      3769.08782378
  Solvation  Ediel_sol  =         0.00000000
  ---------------------------------------------------
  free energy    TOTEN  =       -78.57473103 eV

  energy without entropy =      -78.57473103  energy(sigma->0) =      -78.57473103


--------------------------------------------------------------------------------------------------------




--------------------------------------- Iteration      1(   5)  ---------------------------------------


     EDDAV:  cpu time    0.2352: real time    0.2353
 BZINTS: Fermi energy:  2.103643; 76.000000 electrons
         Band energy:-687.472716;  BLOECHL correction:  0.000000
       DOS:  cpu time    0.0012: real time    0.0012
    CHARGE:  cpu time    0.0179: real time    0.0179
    MIXING:  cpu time    0.0011: real time    0.0018
    --------------------------------------------
      LOOP:  cpu time    0.2554: real time    0.2562

 eigenvalue-minimisations  :  1152
 total energy-change (2. order) :-0.8083345E+00  (-0.8081531E+00)
 number of electron      76.0000008 magnetization 
 augmentation part       -1.7185057 magnetization 

 Broyden mixing:
  rms(total) = 0.23116E+01    rms(broyden)= 0.23111E+01
  rms(prec ) = 0.25333E+01
  weight for this iteration     100.00

 Free energy of the ion-electron system (eV)
  ---------------------------------------------------
  alpha Z        PSCENC =        69.50083658
  Ewald energy   TEWEN  =     -2739.87824047
  -Hartree energ DENC   =      -625.80553222
  -exchange      EXHF   =         0.00000000
  -V(xc)+E(xc)   XCENC  =       182.08248366
  PAW double counting   =      2494.22442938    -2541.12215007
  entropy T*S    EENTRO =         0.00000000
  eigenvalues    EBANDS =      -687.47271617
  atomic energy  EATOM  =      3769.08782378
  Solvation  Ediel_sol  =         0.00000000
  ---------------------------------------------------
  free energy    TOTEN  =       -79.38306554 eV

  energy without entropy =      -79.38306554  energy(sigma->0) =      -79.38306554


--------------------------------------------------------------------------------------------------------




--------------------------------------- Iteration      1(   6)  ---------------------------------------


    POTLOK:  cpu time    0.0048: real time    0.0048
    SETDIJ:  cpu time    0.0012: real time    0.0012
    EDDIAG:  cpu time    0.0550: real time    0.0560
  RMM-DIIS:  cpu time    0.0889: real time    0.0889
    ORTHCH:  cpu time    0.0068: real time    0.0068
 BZINTS: Fermi energy:  2.463104; 76.000000 electrons
         Band energy:-671.185926;  BLOECHL correction:  0.000000
       DOS:  cpu time    0.0013: real time    0.0013
    CHARGE:  cpu time    0.0165: real time    0.0165
    MIXING:  cpu time    0.0005: real time    0.0005
    --------------------------------------------
      LOOP:  cpu time    0.1749: real time    0.1760

 eigenvalue-minimisations  :   817
 total energy-change (2. order) : 0.2080736E+01  (-0.6169058E+00)
 number of electron      76.0000007 magnetization 
 augmentation part       -1.6699229 magnetization 

 Broyden mixing:
  rms(total) = 0.15198E+01    rms(broyden)= 0.15198E+01
  rms(prec ) = 0.15793E+01
  weight for this iteration     100.00

 eigenvalues of (default mixing * dielectric matrix)
  average eigenvalue GAMMA=   2.4746
  2.4746

 Free energy of the ion-electron system (eV)
  ---------------------------------------------------
  alpha Z        PSCENC =        69.50083658
  Ewald energy   TEWEN  =     -2739.87824047
  -Hartree energ DENC   =      -639.75595844
  -exchange      EXHF   =         0.00000000
  -V(xc)+E(xc)   XCENC  =       183.64205981
  PAW double counting   =      4002.58630711    -4051.29923220
  entropy T*S    EENTRO =         0.00000000
  eigenvalues    EBANDS =      -671.18592557
  atomic energy  EATOM  =      3769.08782378
  Solvation  Ediel_sol  =         0.00000000
  ---------------------------------------------------
  free energy    TOTEN  =       -77.30232942 eV

  energy without entropy =      -77.30232942  energy(sigma->0) =      -77.30232942


--------------------------------------------------------------------------------------------------------




--------------------------------------- Iteration      1(   7)  ---------------------------------------


    POTLOK:  cpu time    0.0039: real time    0.0039
    SETDIJ:  cpu time    0.0014: real time    0.0014
    EDDIAG:  cpu time    0.0514: real time    0.0515
  RMM-DIIS:  cpu time    0.0878: real time    0.0879
    ORTHCH:  cpu time    0.0068: real time    0.0068
 BZINTS: Fermi energy:  2.860700; 76.000000 electrons
         Band energy:-656.094919;  BLOECHL correction:  0.000000
       DOS:  cpu time    0.0014: real time    0.0014
    CHARGE:  cpu time    0.0165: real time    0.0165
    MIXING:  cpu time    0.0006: real time    0.0006
    --------------------------------------------
      LOOP:  cpu time    0.1699: real time    0.1700

 eigenvalue-minimisations  :   824
 total energy-change (2. order) : 0.4145056E+00  (-0.2585609E+00)
 number of electron      76.0000007 magnetization 
 augmentation part       -1.6325845 magnetization 

 Broyden mixing:
  rms(total) = 0.39659E+00    rms(broyden)= 0.39659E+00
  rms(prec ) = 0.42183E+00
  weight for this iteration     100.00

 eigenvalues of (default mixing * dielectric matrix)
  average eigenvalue GAMMA=   1.9217
  1.4132  2.4301

 Free energy of the ion-electron system (eV)
  ---------------------------------------------------
  alpha Z        PSCENC =        69.50083658
  Ewald energy   TEWEN  =     -2739.87824047
  -Hartree energ DENC   =      -654.29495943
  -exchange      EXHF   =         0.00000000
  -V(xc)+E(xc)   XCENC  =       185.21850978
  PAW double counting   =      6814.58136681    -6865.00824164
  entropy T*S    EENTRO =         0.00000000
  eigenvalues    EBANDS =      -656.09491926
  atomic energy  EATOM  =      3769.08782378
  Solvation  Ediel_sol  =         0.00000000
  ---------------------------------------------------
  free energy    TOTEN  =       -76.88782385 eV

  energy without entropy =      -76.88782385  energy(sigma->0) =      -76.88782385


--------------------------------------------------------------------------------------------------------




--------------------------------------- Iteration      1(   8)  ---------------------------------------


    POTLOK:  cpu time    0.0038: real time    0.0038
    SETDIJ:  cpu time    0.0013: real time    0.0013
    EDDIAG:  cpu time    0.0512: real time    0.0512
  RMM-DIIS:  cpu time    0.1053: real time    0.1053
    ORTHCH:  cpu time    0.0068: real time    0.0068
 BZINTS: Fermi energy:  2.866675; 76.000000 electrons
         Band energy:-655.922234;  BLOECHL correction:  0.000000
       DOS:  cpu time    0.0015: real time    0.0015
    CHARGE:  cpu time    0.0168: real time    0.0168
    MIXING:  cpu time    0.0005: real time    0.0005
    --------------------------------------------
      LOOP:  cpu time    0.1872: real time    0.1872

 eigenvalue-minimisations  :   966
 total energy-change (2. order) : 0.7315927E-01  (-0.2392485E-01)
 number of electron      76.0000007 magnetization 
 augmentation part       -1.6613713 magnetization 

 Broyden mixing:
  rms(total) = 0.58104E-01    rms(broyden)= 0.58075E-01
  rms(prec ) = 0.71115E-01
  weight for this iteration     100.00

 eigenvalues of (default mixing * dielectric matrix)
  average eigenvalue GAMMA=   1.6816
  1.0344  2.2477  1.7627

 Free energy of the ion-electron system (eV)
  ---------------------------------------------------
  alpha Z        PSCENC =        69.50083658
  Ewald energy   TEWEN  =     -2739.87824047
  -Hartree energ DENC   =      -654.35403674
  -exchange      EXHF   =         0.00000000
  -V(xc)+E(xc)   XCENC  =       185.27405974
  PAW double counting   =      7562.55346067    -7613.07633364
  entropy T*S    EENTRO =         0.00000000
  eigenvalues    EBANDS =      -655.92223449
  atomic energy  EATOM  =      3769.08782378
  Solvation  Ediel_sol  =         0.00000000
  ---------------------------------------------------
  free energy    TOTEN  =       -76.81466458 eV

  energy without entropy =      -76.81466458  energy(sigma->0) =      -76.81466458


--------------------------------------------------------------------------------------------------------




--------------------------------------- Iteration      1(   9)  ---------------------------------------


    POTLOK:  cpu time    0.0038: real time    0.0038
    SETDIJ:  cpu time    0.0014: real time    0.0014
    EDDIAG:  cpu time    0.0506: real time    0.0506
  RMM-DIIS:  cpu time    0.1056: real time    0.1057
    ORTHCH:  cpu time    0.0070: real time    0.0070
 BZINTS: Fermi energy:  2.726357; 76.000000 electrons
         Band energy:-657.009417;  BLOECHL correction:  0.000000
       DOS:  cpu time    0.0012: real time    0.0012
    CHARGE:  cpu time    0.0167: real time    0.0167
    MIXING:  cpu time    0.0005: real time    0.0005
    --------------------------------------------
      LOOP:  cpu time    0.1868: real time    0.1869

 eigenvalue-minimisations  :   996
 total energy-change (2. order) : 0.6164987E-02  (-0.3583289E-02)
 number of electron      76.0000007 magnetization 
 augmentation part       -1.6769671 magnetization 

 Broyden mixing:
  rms(total) = 0.23799E-01    rms(broyden)= 0.23781E-01
  rms(prec ) = 0.25566E-01
  weight for this iteration     100.00

 eigenvalues of (default mixing * dielectric matrix)
  average eigenvalue GAMMA=   1.7706
  2.1815  1.2141  1.8434  1.8434

 Free energy of the ion-electron system (eV)
  ---------------------------------------------------
  alpha Z        PSCENC =        69.50083658
  Ewald energy   TEWEN  =     -2739.87824047
  -Hartree energ DENC   =      -653.22618139
  -exchange      EXHF   =         0.00000000
  -V(xc)+E(xc)   XCENC  =       185.20831197
  PAW double counting   =      7466.31587784    -7516.80751051
  entropy T*S    EENTRO =         0.00000000
  eigenvalues    EBANDS =      -657.00941738
  atomic energy  EATOM  =      3769.08782378
  Solvation  Ediel_sol  =         0.00000000
  ---------------------------------------------------
  free energy    TOTEN  =       -76.80849960 eV

  energy without entropy =      -76.80849960  energy(sigma->0) =      -76.80849960


--------------------------------------------------------------------------------------------------------




--------------------------------------- Iteration      1(  10)  ---------------------------------------


    POTLOK:  cpu time    0.0046: real time    0.0046
    SETDIJ:  cpu time    0.0019: real time    0.0019
    EDDIAG:  cpu time    0.0522: real time    0.0522
  RMM-DIIS:  cpu time    0.1328: real time    0.1328
    ORTHCH:  cpu time    0.0071: real time    0.0071
 BZINTS: Fermi energy:  2.726121; 76.000000 electrons
         Band energy:-656.653597;  BLOECHL correction:  0.000000
       DOS:  cpu time    0.0012: real time    0.0012
    CHARGE:  cpu time    0.0169: real time    0.0170
    MIXING:  cpu time    0.0006: real time    0.0006
    --------------------------------------------
      LOOP:  cpu time    0.2172: real time    0.2173

 eigenvalue-minimisations  :  1203
 total energy-change (2. order) :-0.4057536E-03  (-0.8710189E-03)
 number of electron      76.0000007 magnetization 
 augmentation part       -1.6811136 magnetization 

 Broyden mixing:
  rms(total) = 0.14276E-01    rms(broyden)= 0.14261E-01
  rms(prec ) = 0.15113E-01
  weight for this iteration     100.00

 eigenvalues of (default mixing * dielectric matrix)
  average eigenvalue GAMMA=   1.7877
  2.4097  2.4097  1.9622  1.2950  0.8618

 Free energy of the ion-electron system (eV)
  ---------------------------------------------------
  alpha Z        PSCENC =        69.50083658
  Ewald energy   TEWEN  =     -2739.87824047
  -Hartree energ DENC   =      -653.58491666
  -exchange      EXHF   =         0.00000000
  -V(xc)+E(xc)   XCENC  =       185.24145198
  PAW double counting   =      7443.53217822    -7494.05444214
  entropy T*S    EENTRO =         0.00000000
  eigenvalues    EBANDS =      -656.65359664
  atomic energy  EATOM  =      3769.08782378
  Solvation  Ediel_sol  =         0.00000000
  ---------------------------------------------------
  free energy    TOTEN  =       -76.80890535 eV

  energy without entropy =      -76.80890535  energy(sigma->0) =      -76.80890535


--------------------------------------------------------------------------------------------------------




--------------------------------------- Iteration      1(  11)  ---------------------------------------


    POTLOK:  cpu time    0.0045: real time    0.0045
    SETDIJ:  cpu time    0.0018: real time    0.0018
    EDDIAG:  cpu time    0.0560: real time    0.0560
  RMM-DIIS:  cpu time    0.1208: real time    0.1208
    ORTHCH:  cpu time    0.0068: real time    0.0068
 BZINTS: Fermi energy:  2.725641; 76.000000 electrons
         Band energy:-656.489553;  BLOECHL correction:  0.000000
       DOS:  cpu time    0.0012: real time    0.0012
    CHARGE:  cpu time    0.0170: real time    0.0170
    MIXING:  cpu time    0.0006: real time    0.0006
    --------------------------------------------
      LOOP:  cpu time    0.2088: real time    0.2088

 eigenvalue-minimisations  :  1107
 total energy-change (2. order) :-0.4097252E-03  (-0.4197928E-03)
 number of electron      76.0000007 magnetization 
 augmentation part       -1.6834909 magnetization 

 Broyden mixing:
  rms(total) = 0.45051E-02    rms(broyden)= 0.44880E-02
  rms(prec ) = 0.50445E-02
  weight for this iteration     100.00

 eigenvalues of (default mixing * dielectric matrix)
  average eigenvalue GAMMA=   1.6934
  2.4475  2.4475  1.0257  1.6052  1.3173  1.3173

 Free energy of the ion-electron system (eV)
  ---------------------------------------------------
  alpha Z        PSCENC =        69.50083658
  Ewald energy   TEWEN  =     -2739.87824047
  -Hartree energ DENC   =      -653.75425831
  -exchange      EXHF   =         0.00000000
  -V(xc)+E(xc)   XCENC  =       185.25675059
  PAW double counting   =      7415.76525028    -7466.29792438
  entropy T*S    EENTRO =         0.00000000
  eigenvalues    EBANDS =      -656.48955314
  atomic energy  EATOM  =      3769.08782378
  Solvation  Ediel_sol  =         0.00000000
  ---------------------------------------------------
  free energy    TOTEN  =       -76.80931507 eV

  energy without entropy =      -76.80931507  energy(sigma->0) =      -76.80931507


--------------------------------------------------------------------------------------------------------




--------------------------------------- Iteration      1(  12)  ---------------------------------------


    POTLOK:  cpu time    0.0039: real time    0.0039
    SETDIJ:  cpu time    0.0013: real time    0.0013
    EDDIAG:  cpu time    0.0515: real time    0.0515
  RMM-DIIS:  cpu time    0.1164: real time    0.1164
    ORTHCH:  cpu time    0.0068: real time    0.0068
 BZINTS: Fermi energy:  2.723129; 76.000000 electrons
         Band energy:-656.514659;  BLOECHL correction:  0.000000
       DOS:  cpu time    0.0012: real time    0.0012
    CHARGE:  cpu time    0.0165: real time    0.0165
    MIXING:  cpu time    0.0006: real time    0.0006
    --------------------------------------------
      LOOP:  cpu time    0.1981: real time    0.1981

 eigenvalue-minimisations  :  1096
 total energy-change (2. order) :-0.1766979E-03  (-0.2002275E-03)
 number of electron      76.0000007 magnetization 
 augmentation part       -1.6854077 magnetization 

 Broyden mixing:
  rms(total) = 0.22471E-02    rms(broyden)= 0.22329E-02
  rms(prec ) = 0.24885E-02
  weight for this iteration     100.00

 eigenvalues of (default mixing * dielectric matrix)
  average eigenvalue GAMMA=   1.5702
  2.3743  2.3743  1.7304  1.0268  1.5163  1.3725  0.5968

 Free energy of the ion-electron system (eV)
  ---------------------------------------------------
  alpha Z        PSCENC =        69.50083658
  Ewald energy   TEWEN  =     -2739.87824047
  -Hartree energ DENC   =      -653.73717687
  -exchange      EXHF   =         0.00000000
  -V(xc)+E(xc)   XCENC  =       185.25843173
  PAW double counting   =      7425.48022075    -7476.00672839
  entropy T*S    EENTRO =         0.00000000
  eigenvalues    EBANDS =      -656.51465887
  atomic energy  EATOM  =      3769.08782378
  Solvation  Ediel_sol  =         0.00000000
  ---------------------------------------------------
  free energy    TOTEN  =       -76.80949177 eV

  energy without entropy =      -76.80949177  energy(sigma->0) =      -76.80949177


--------------------------------------------------------------------------------------------------------




--------------------------------------- Iteration      1(  13)  ---------------------------------------


    POTLOK:  cpu time    0.0035: real time    0.0039
    SETDIJ:  cpu time    0.0014: real time    0.0014
    EDDIAG:  cpu time    0.0512: real time    0.0512
  RMM-DIIS:  cpu time    0.0805: real time    0.0805
    ORTHCH:  cpu time    0.0068: real time    0.0068
 BZINTS: Fermi energy:  2.720522; 76.000000 electrons
         Band energy:-656.495414;  BLOECHL correction:  0.000000
       DOS:  cpu time    0.0012: real time    0.0012
    CHARGE:  cpu time    0.0165: real time    0.0165
    MIXING:  cpu time    0.0006: real time    0.0006
    --------------------------------------------
      LOOP:  cpu time    0.1618: real time    0.1622

 eigenvalue-minimisations  :   788
 total energy-change (2. order) :-0.1031537E-03  (-0.1116174E-03)
 number of electron      76.0000007 magnetization 
 augmentation part       -1.6862570 magnetization 

 Broyden mixing:
  rms(total) = 0.15752E-02    rms(broyden)= 0.15664E-02
  rms(prec ) = 0.17605E-02
  weight for this iteration     100.00

 eigenvalues of (default mixing * dielectric matrix)
  average eigenvalue GAMMA=   1.8156
  3.3999  2.4646  2.1036  2.1036  1.3973  1.0640  0.9958  0.9958

 Free energy of the ion-electron system (eV)
  ---------------------------------------------------
  alpha Z        PSCENC =        69.50083658
  Ewald energy   TEWEN  =     -2739.87824047
  -Hartree energ DENC   =      -653.76615086
  -exchange      EXHF   =         0.00000000
  -V(xc)+E(xc)   XCENC  =       185.26063134
  PAW double counting   =      7424.77262375    -7475.29170475
  entropy T*S    EENTRO =         0.00000000
  eigenvalues    EBANDS =      -656.49541429
  atomic energy  EATOM  =      3769.08782378
  Solvation  Ediel_sol  =         0.00000000
  ---------------------------------------------------
  free energy    TOTEN  =       -76.80959493 eV

  energy without entropy =      -76.80959493  energy(sigma->0) =      -76.80959493


--------------------------------------------------------------------------------------------------------




--------------------------------------- Iteration      1(  14)  ---------------------------------------


    POTLOK:  cpu time    0.0035: real time    0.0039
    SETDIJ:  cpu time    0.0013: real time    0.0013
    EDDIAG:  cpu time    0.0499: real time    0.0499
  RMM-DIIS:  cpu time    0.0975: real time    0.0975
    ORTHCH:  cpu time    0.0068: real time    0.0068
 BZINTS: Fermi energy:  2.718311; 76.000000 electrons
         Band energy:-656.488214;  BLOECHL correction:  0.000000
       DOS:  cpu time    0.0012: real time    0.0012
    CHARGE:  cpu time    0.0163: real time    0.0163
    MIXING:  cpu time    0.0006: real time    0.0006
    --------------------------------------------
      LOOP:  cpu time    0.1771: real time    0.1775

 eigenvalue-minimisations  :   865
 total energy-change (2. order) :-0.4891523E-04  (-0.5422732E-04)
 number of electron      76.0000007 magnetization 
 augmentation part       -1.6868900 magnetization 

 Broyden mixing:
  rms(total) = 0.33346E-03    rms(broyden)= 0.31807E-03
  rms(prec ) = 0.53159E-03
  weight for this iteration     100.00

 eigenvalues of (default mixing * dielectric matrix)
  average eigenvalue GAMMA=   1.7146
  3.0499  2.4713  2.1152  2.1152  1.6527  1.3256  0.9838  0.8589  0.8589

 Free energy of the ion-electron system (eV)
  ---------------------------------------------------
  alpha Z        PSCENC =        69.50083658
  Ewald energy   TEWEN  =     -2739.87824047
  -Hartree energ DENC   =      -653.79192622
  -exchange      EXHF   =         0.00000000
  -V(xc)+E(xc)   XCENC  =       185.26388376
  PAW double counting   =      7422.52193685    -7473.02574417
  entropy T*S    EENTRO =         0.00000000
  eigenvalues    EBANDS =      -656.48821394
  atomic energy  EATOM  =      3769.08782378
  Solvation  Ediel_sol  =         0.00000000
  ---------------------------------------------------
  free energy    TOTEN  =       -76.80964384 eV

  energy without entropy =      -76.80964384  energy(sigma->0) =      -76.80964384


--------------------------------------------------------------------------------------------------------




--------------------------------------- Iteration      1(  15)  ---------------------------------------


    POTLOK:  cpu time    0.0036: real time    0.0039
    SETDIJ:  cpu time    0.0013: real time    0.0013
    EDDIAG:  cpu time    0.0508: real time    0.0508
  RMM-DIIS:  cpu time    0.0854: real time    0.0854
    ORTHCH:  cpu time    0.0068: real time    0.0068
 BZINTS: Fermi energy:  2.715618; 76.000000 electrons
         Band energy:-656.483749;  BLOECHL correction:  0.000000
       DOS:  cpu time    0.0012: real time    0.0012
    CHARGE:  cpu time    0.0165: real time    0.0165
    MIXING:  cpu time    0.0007: real time    0.0007
    --------------------------------------------
      LOOP:  cpu time    0.1663: real time    0.1666

 eigenvalue-minimisations  :   808
 total energy-change (2. order) :-0.3112066E-04  (-0.3572191E-04)
 number of electron      76.0000007 magnetization 
 augmentation part       -1.6873094 magnetization 

 Broyden mixing:
  rms(total) = 0.33660E-03    rms(broyden)= 0.32924E-03
  rms(prec ) = 0.38710E-03
  weight for this iteration     100.00

 eigenvalues of (default mixing * dielectric matrix)
  average eigenvalue GAMMA=   1.6224
  3.1325  2.4390  2.2580  2.2580  1.7038  1.3250  1.0045  0.8635  0.8196  0.4204

 Free energy of the ion-electron system (eV)
  ---------------------------------------------------
  alpha Z        PSCENC =        69.50083658
  Ewald energy   TEWEN  =     -2739.87824047
  -Hartree energ DENC   =      -653.79593909
  -exchange      EXHF   =         0.00000000
  -V(xc)+E(xc)   XCENC  =       185.26391196
  PAW double counting   =      7422.32481329    -7472.82913212
  entropy T*S    EENTRO =         0.00000000
  eigenvalues    EBANDS =      -656.48374888
  atomic energy  EATOM  =      3769.08782378
  Solvation  Ediel_sol  =         0.00000000
  ---------------------------------------------------
  free energy    TOTEN  =       -76.80967496 eV

  energy without entropy =      -76.80967496  energy(sigma->0) =      -76.80967496


--------------------------------------------------------------------------------------------------------




--------------------------------------- Iteration      1(  16)  ---------------------------------------


    POTLOK:  cpu time    0.0037: real time    0.0040
    SETDIJ:  cpu time    0.0013: real time    0.0013
    EDDIAG:  cpu time    0.0505: real time    0.0505
  RMM-DIIS:  cpu time    0.0686: real time    0.0686
    ORTHCH:  cpu time    0.0067: real time    0.0067
 BZINTS: Fermi energy:  2.713042; 76.000000 electrons
         Band energy:-656.483158;  BLOECHL correction:  0.000000
       DOS:  cpu time    0.0012: real time    0.0012
    --------------------------------------------
      LOOP:  cpu time    0.1320: real time    0.1324

 eigenvalue-minimisations  :   645
 total energy-change (2. order) :-0.1356306E-04  (-0.1598533E-04)
 number of electron      76.0000007 magnetization 
 augmentation part       -1.6873094 magnetization 

 Free energy of the ion-electron system (eV)
  ---------------------------------------------------
  alpha Z        PSCENC =        69.50083658
  Ewald energy   TEWEN  =     -2739.87824047
  -Hartree energ DENC   =      -653.79745286
  -exchange      EXHF   =         0.00000000
  -V(xc)+E(xc)   XCENC  =       185.26407076
  PAW double counting   =      7422.30349691    -7472.80706563
  entropy T*S    EENTRO =         0.00000000
  eigenvalues    EBANDS =      -656.48315759
  atomic energy  EATOM  =      3769.08782378
  Solvation  Ediel_sol  =         0.00000000
  ---------------------------------------------------
  free energy    TOTEN  =       -76.80968852 eV

  energy without entropy =      -76.80968852  energy(sigma->0) =      -76.80968852


--------------------------------------------------------------------------------------------------------




 average (electrostatic) potential at core
  the test charge radii are     0.9587  0.9698  0.7079
  (the norm of the test charge is              1.0000)
       1 -88.0308       2 -88.0308       3 -88.0877       4 -88.0877       5 -88.0877
       6 -88.0877       7 -88.0196       8 -88.0196       9 -88.0455      10 -88.0455
      11 -64.3509      12 -64.3509      13 -63.5990      14 -63.5990      15 -63.5990
      16 -63.5990
 
 
 
 E-fermi :   2.7130     XC(G=0):  -9.1774     alpha+bet :-10.6372


 k-point     1 :       0.1250    0.1250    0.1250
  band No.  band energies     occupation 
      1     -41.4969      2.00000
      2     -41.4969      2.00000
      3     -40.7682      2.00000
      4     -40.7680      2.00000
      5     -40.7675      2.00000
      6     -40.7673      2.00000
      7     -12.4153      2.00000
      8     -12.2415      2.00000
      9      -9.4882      2.00000
     10      -9.3418      2.00000
     11      -9.3078      2.00000
     12      -9.0823      2.00000
     13      -9.0248      2.00000
     14      -8.9297      2.00000
     15      -5.4186      2.00000
     16      -4.8123      2.00000
     17      -2.5391      2.00000
     18      -2.3520      2.00000
     19      -2.2074      2.00000
     20      -2.0830      2.00000
     21      -1.9437      2.00000
     22      -1.8172      2.00000
     23      -0.1651      2.00000
     24      -0.0411      2.00000
     25       0.2070      2.00000
     26       0.4708      2.00000
     27       0.6758      2.00000
     28       0.9375      2.00000
     29       1.1165      2.00000
     30       1.3099      2.00000
     31       1.5467      2.00000
     32       1.5808      2.00000
     33       1.8327      2.00000
     34       1.9779      2.00000
     35       2.1197      2.00000
     36       2.2627      2.00000
     37       2.4843      2.00000
     38       2.7111      2.00000
     39       5.7558      0.00000
     40       6.0853      0.00000
     41       6.4067      0.00000
     42       6.5863      0.00000
     43       6.9022      0.00000
     44       7.2448      0.00000
     45       7.4604      0.00000
     46       7.5890      0.00000
     47       8.1667      0.00000
     48       8.7702      0.00000

 k-point     2 :       0.3750    0.1250    0.1250
  band No.  band energies     occupation 
      1     -41.4969      2.00000
      2     -41.4969      2.00000
      3     -40.7681      2.00000
      4     -40.7679      2.00000
      5     -40.7675      2.00000
      6     -40.7674      2.00000
      7     -12.3668      2.00000
      8     -12.2950      2.00000
      9      -9.4158      2.00000
     10      -9.3449      2.00000
     11      -9.2806      2.00000
     12      -9.1877      2.00000
     13      -9.0025      2.00000
     14      -8.9564      2.00000
     15      -5.2300      2.00000
     16      -4.9792      2.00000
     17      -2.4814      2.00000
     18      -2.4130      2.00000
     19      -2.1905      2.00000
     20      -2.0950      2.00000
     21      -1.9207      2.00000
     22      -1.8574      2.00000
     23      -0.1657      2.00000
     24      -0.0829      2.00000
     25       0.4348      2.00000
     26       0.5426      2.00000
     27       0.7515      2.00000
     28       0.9438      2.00000
     29       1.0654      2.00000
     30       1.2685      2.00000
     31       1.4847      2.00000
     32       1.6144      2.00000
     33       1.7424      2.00000
     34       1.9422      2.00000
     35       1.9884      2.00000
     36       2.1120      2.00000
     37       2.4478      2.00000
     38       2.5587      2.00000
     39       5.9652      0.00000
     40       6.1659      0.00000
     41       6.6358      0.00000
     42       6.7664      0.00000
     43       7.1038      0.00000
     44       7.2153      0.00000
     45       7.3488      0.00000
     46       7.5079      0.00000
     47       8.4984      0.00000
     48       8.5209      0.00000

 k-point     3 :       0.1250    0.3750    0.1250
  band No.  band energies     occupation 
      1     -41.4970      2.00000
      2     -41.4969      2.00000
      3     -40.7682      2.00000
      4     -40.7680      2.00000
      5     -40.7675      2.00000
      6     -40.7674      2.00000
      7     -12.3590      2.00000
      8     -12.2552      2.00000
      9      -9.4947      2.00000
     10      -9.4500      2.00000
     11      -9.3246      2.00000
     12      -9.1195      2.00000
     13      -9.0265      2.00000
     14      -8.9400      2.00000
     15      -5.2127      2.00000
     16      -4.7717      2.00000
     17      -2.5484      2.00000
     18      -2.3493      2.00000
     19      -2.2239      2.00000
     20      -2.0700      2.00000
     21      -1.9080      2.00000
     22      -1.7565      2.00000
     23      -0.0865      2.00000
     24       0.0354      2.00000
     25       0.3424      2.00000
     26       0.4751      2.00000
     27       0.5390      2.00000
     28       0.7946      2.00000
     29       1.0403      2.00000
     30       1.1986      2.00000
     31       1.5012      2.00000
     32       1.6896      2.00000
     33       1.8179      2.00000
     34       1.9797      2.00000
     35       2.1347      2.00000
     36       2.2978      2.00000
     37       2.4087      2.00000
     38       2.6562      2.00000
     39       5.5776      0.00000
     40       6.1452      0.00000
     41       6.5182      0.00000
     42       6.6177      0.00000
     43       6.9031      0.00000
     44       7.0353      0.00000
     45       7.1886      0.00000
     46       7.5106      0.00000
     47       8.4263      0.00000
     48       8.7556      0.00000

 k-point     4 :       0.3750    0.3750    0.1250
  band No.  band energies     occupation 
      1     -41.4969      2.00000
      2     -41.4969      2.00000
      3     -40.7680      2.00000
      4     -40.7680      2.00000
      5     -40.7676      2.00000
      6     -40.7675      2.00000
      7     -12.3288      2.00000
      8     -12.2857      2.00000
      9      -9.4967      2.00000
     10      -9.4713      2.00000
     11      -9.2508      2.00000
     12      -9.1620      2.00000
     13      -9.0124      2.00000
     14      -8.9757      2.00000
     15      -5.0695      2.00000
     16      -4.8864      2.00000
     17      -2.4654      2.00000
     18      -2.3791      2.00000
     19      -2.1880      2.00000
     20      -2.1465      2.00000
     21      -1.8368      2.00000
     22      -1.7759      2.00000
     23      -0.0556      2.00000
     24       0.0374      2.00000
     25       0.1558      2.00000
     26       0.3541      2.00000
     27       0.7030      2.00000
     28       0.7788      2.00000
     29       0.9185      2.00000
     30       1.1535      2.00000
     31       1.5537      2.00000
     32       1.6505      2.00000
     33       1.8450      2.00000
     34       1.9651      2.00000
     35       2.1366      2.00000
     36       2.2380      2.00000
     37       2.4917      2.00000
     38       2.6306      2.00000
     39       5.7721      0.00000
     40       6.0313      0.00000
     41       6.6228      0.00000
     42       6.7528      0.00000
     43       7.0436      0.00000
     44       7.1925      0.00000
     45       7.4034      0.00000
     46       7.5516      0.00000
     47       8.4965      0.00000
     48       8.7288      0.00000

 k-point     5 :       0.1250    0.1250    0.3750
  band No.  band energies     occupation 
      1     -41.4969      2.00000
      2     -41.4969      2.00000
      3     -40.7681      2.00000
      4     -40.7680      2.00000
      5     -40.7675      2.00000
      6     -40.7674      2.00000
      7     -12.3213      2.00000
      8     -12.2452      2.00000
      9      -9.4658      2.00000
     10      -9.3693      2.00000
     11      -9.3214      2.00000
     12      -9.2056      2.00000
     13      -9.0982      2.00000
     14      -9.0858      2.00000
     15      -5.1284      2.00000
     16      -4.8592      2.00000
     17      -2.2319      2.00000
     18      -2.1518      2.00000
     19      -2.0876      2.00000
     20      -1.9913      2.00000
     21      -1.9194      2.00000
     22      -1.7677      2.00000
     23      -0.0124      2.00000
     24       0.0630      2.00000
     25       0.1333      2.00000
     26       0.3017      2.00000
     27       0.4638      2.00000
     28       0.6446      2.00000
     29       1.1233      2.00000
     30       1.3269      2.00000
     31       1.5062      2.00000
     32       1.6052      2.00000
     33       1.7520      2.00000
     34       1.9033      2.00000
     35       2.0625      2.00000
     36       2.2505      2.00000
     37       2.4481      2.00000
     38       2.6558      2.00000
     39       5.4103      0.00000
     40       5.7424      0.00000
     41       6.4271      0.00000
     42       6.5911      0.00000
     43       7.1214      0.00000
     44       7.2543      0.00000
     45       7.3719      0.00000
     46       7.5349      0.00000
     47       8.3610      0.00000
     48       8.6327      0.00000

 k-point     6 :       0.3750    0.1250    0.3750
  band No.  band energies     occupation 
      1     -41.4970      2.00000
      2     -41.4969      2.00000
      3     -40.7680      2.00000
      4     -40.7680      2.00000
      5     -40.7676      2.00000
      6     -40.7675      2.00000
      7     -12.2981      2.00000
      8     -12.2665      2.00000
      9      -9.4937      2.00000
     10      -9.4496      2.00000
     11      -9.2532      2.00000
     12      -9.2181      2.00000
     13      -9.0739      2.00000
     14      -9.0565      2.00000
     15      -5.0513      2.00000
     16      -4.9395      2.00000
     17      -2.2830      2.00000
     18      -2.2569      2.00000
     19      -2.0376      2.00000
     20      -1.9453      2.00000
     21      -1.8089      2.00000
     22      -1.7619      2.00000
     23      -0.0034      2.00000
     24       0.0169      2.00000
     25       0.2811      2.00000
     26       0.4017      2.00000
     27       0.5285      2.00000
     28       0.6597      2.00000
     29       1.1193      2.00000
     30       1.1875      2.00000
     31       1.4070      2.00000
     32       1.5029      2.00000
     33       1.7414      2.00000
     34       1.7832      2.00000
     35       1.9321      2.00000
     36       2.0334      2.00000
     37       2.5390      2.00000
     38       2.6686      2.00000
     39       5.5704      0.00000
     40       5.7291      0.00000
     41       6.6794      0.00000
     42       6.8332      0.00000
     43       7.1030      0.00000
     44       7.1764      0.00000
     45       7.4908      0.00000
     46       7.6125      0.00000
     47       8.3922      0.00000
     48       8.6291      0.00000

 k-point     7 :       0.1250    0.3750    0.3750
  band No.  band energies     occupation 
      1     -41.4969      2.00000
      2     -41.4969      2.00000
      3     -40.7681      2.00000
      4     -40.7681      2.00000
      5     -40.7674      2.00000
      6     -40.7674      2.00000
      7     -12.2826      2.00000
      8     -12.2370      2.00000
      9      -9.4562      2.00000
     10      -9.4029      2.00000
     11      -9.3406      2.00000
     12      -9.2856      2.00000
     13      -9.1489      2.00000
     14      -9.1067      2.00000
     15      -4.9413      2.00000
     16      -4.7538      2.00000
     17      -2.2466      2.00000
     18      -2.1939      2.00000
     19      -2.1254      2.00000
     20      -2.0501      2.00000
     21      -1.8065      2.00000
     22      -1.6355      2.00000
     23      -0.0551      2.00000
     24       0.2051      2.00000
     25       0.2954      2.00000
     26       0.4536      2.00000
     27       0.6088      2.00000
     28       0.7379      2.00000
     29       0.8880      2.00000
     30       1.0045      2.00000
     31       1.1637      2.00000
     32       1.2892      2.00000
     33       1.6582      2.00000
     34       2.0853      2.00000
     35       2.2193      2.00000
     36       2.3112      2.00000
     37       2.4507      2.00000
     38       2.5433      2.00000
     39       5.5621      0.00000
     40       5.8826      0.00000
     41       6.4799      0.00000
     42       6.7364      0.00000
     43       6.8126      0.00000
     44       6.9465      0.00000
     45       7.0996      0.00000
     46       7.2288      0.00000
     47       8.4638      0.00000
     48       8.6720      0.00000

 k-point     8 :       0.3750    0.3750    0.3750
  band No.  band energies     occupation 
      1     -41.4969      2.00000
      2     -41.4969      2.00000
      3     -40.7680      2.00000
      4     -40.7680      2.00000
      5     -40.7675      2.00000
      6     -40.7675      2.00000
      7     -12.2683      2.00000
      8     -12.2494      2.00000
      9      -9.4426      2.00000
     10      -9.4207      2.00000
     11      -9.3413      2.00000
     12      -9.3088      2.00000
     13      -9.1315      2.00000
     14      -9.1088      2.00000
     15      -4.8621      2.00000
     16      -4.7836      2.00000
     17      -2.2553      2.00000
     18      -2.2243      2.00000
     19      -2.0370      2.00000
     20      -1.9475      2.00000
     21      -1.8140      2.00000
     22      -1.7189      2.00000
     23      -0.1322      2.00000
     24      -0.0076      2.00000
     25       0.2839      2.00000
     26       0.3821      2.00000
     27       0.5830      2.00000
     28       0.6395      2.00000
     29       0.9929      2.00000
     30       1.0605      2.00000
     31       1.3269      2.00000
     32       1.3786      2.00000
     33       1.6397      2.00000
     34       1.8868      2.00000
     35       2.2032      2.00000
     36       2.2499      2.00000
     37       2.4969      2.00000
     38       2.5938      2.00000
     39       5.7268      0.00000
     40       5.8897      0.00000
     41       6.6290      0.00000
     42       6.6490      0.00000
     43       6.9361      0.00000
     44       7.1114      0.00000
     45       7.2620      0.00000
     46       7.3901      0.00000
     47       8.5014      0.00000
     48       8.7527      0.00000


--------------------------------------------------------------------------------------------------------


 soft charge-density along one line, spin component           1
         0         1         2         3         4         5         6         7         8         9
 total charge-density along one line
 
 pseudopotential strength for first ion, spin component:           1
 29.990  37.418   0.002  -0.003  -0.000   0.003  -0.005  -0.000
 37.418  46.690   0.002  -0.004  -0.000   0.003  -0.006  -0.000
  0.002   0.002   6.575   0.001  -0.000  10.181   0.001  -0.000
 -0.003  -0.004   0.001   6.575  -0.000   0.001  10.181  -0.000
 -0.000  -0.000  -0.000  -0.000   6.574  -0.000  -0.000  10.179
  0.003   0.003  10.181   0.001  -0.000  15.784   0.002  -0.000
 -0.005  -0.006   0.001  10.181  -0.000   0.002  15.784  -0.000
 -0.000  -0.000  -0.000  -0.000  10.179  -0.000  -0.000  15.782
 total augmentation occupancy for first ion, spin component:           1
 11.185  -6.468   0.078  -0.264   0.000  -0.024   0.111   0.000
 -6.468   4.218  -0.062   0.213   0.000   0.016  -0.082   0.000
  0.078  -0.062   4.366   0.068   0.000  -1.464  -0.034   0.000
 -0.264   0.213   0.068   4.536   0.000  -0.034  -1.534   0.000
  0.000   0.000   0.000   0.000   4.249   0.000   0.000  -1.401
 -0.024   0.016  -1.464  -0.034   0.000   0.530   0.016   0.000
  0.111  -0.082  -0.034  -1.534   0.000   0.016   0.561   0.000
  0.000   0.000   0.000   0.000  -1.401   0.000   0.000   0.502


------------------------ aborting loop because EDIFF is reached ----------------------------------------


    CHARGE:  cpu time    0.0168: real time    0.0168
    FORLOC:  cpu time    0.0007: real time    0.0007
    FORNL :  cpu time    0.0361: real time    0.0361
    STRESS:  cpu time    0.1028: real time    0.1037
    FORCOR:  cpu time    0.0028: real time    0.0028
    FORHAR:  cpu time    0.0023: real time    0.0023
    MIXING:  cpu time    0.0005: real time    0.0005
    OFIELD:  cpu time    0.0000: real time    0.0000

  FORCE on cell =-STRESS in cart. coord.  units (eV):
  Direction    XX          YY          ZZ          XY          YZ          ZX
  --------------------------------------------------------------------------------------
  Alpha Z    69.50084    69.50084    69.50084
  Ewald    -932.19916  -980.12624  -827.55788    -0.00000    -0.00000    -0.00000
  Hartree   211.37673   177.79789   264.63483    -0.00000    -0.00000    -0.00000
  E(xc)    -277.03006  -276.97362  -277.00349    -0.00000     0.00000     0.00000
  Local    -631.98855  -546.81931  -782.47429     0.00000     0.00000     0.00000
  n-local   612.58242   611.53551   611.47704    -0.42851     0.04882     0.00730
  augment   -42.97406   -42.67407   -42.27632     0.00000     0.00000    -0.00000
  Kinetic   989.35539   987.64284   983.83549    -0.02151    -0.13068     0.04885
  Fock        0.00000     0.00000     0.00000     0.00000     0.00000     0.00000
  -------------------------------------------------------------------------------------
  Total      -1.37646    -0.11616     0.13620     0.00000     0.00000     0.00000
  in kB      -7.76736    -0.65548     0.76859     0.00000     0.00000     0.00000
  external pressure =       -2.55 kB  Pullay stress =        0.00 kB


 VOLUME and BASIS-vectors are now :
 -----------------------------------------------------------------------------
  energy-cutoff  :      420.00
  volume of cell :      283.92
      direct lattice vectors                 reciprocal lattice vectors
     7.797976065  0.000000000  0.000000000     0.128238403  0.000000000  0.000000000
     0.000000000  6.141137058  0.000000000     0.000000000  0.162836294  0.000000000
[...]
     17      -2.4858      2.00000
     18      -2.2871      2.00000
     19      -2.1599      2.00000
     20      -2.0025      2.00000
     21      -1.8048      2.00000
     22      -1.6816      2.00000
     23      -0.0223      2.00000
     24       0.0936      2.00000
     25       0.4194      2.00000
     26       0.5194      2.00000
     27       0.6106      2.00000
     28       0.8456      2.00000
     29       1.1042      2.00000
     30       1.2688      2.00000
     31       1.5671      2.00000
     32       1.7559      2.00000
     33       1.8908      2.00000
     34       2.0598      2.00000
     35       2.2134      2.00000
     36       2.3265      2.00000
     37       2.4816      2.00000
     38       2.6848      2.00000
     39       5.6564      0.00000
     40       6.2407      0.00000
     41       6.6201      0.00000
     42       6.6533      0.00000
     43       6.9874      0.00000
     44       7.1007      0.00000
     45       7.2590      0.00000
     46       7.6069      0.00000
     47       8.5610      0.00000
     48       8.6755      0.00000

 k-point     4 :       0.3750    0.3750    0.1250
  band No.  band energies     occupation 
      1     -41.3128      2.00000
      2     -41.3127      2.00000
      3     -40.6281      2.00000
      4     -40.6280      2.00000
      5     -40.6273      2.00000
      6     -40.6273      2.00000
      7     -12.2615      2.00000
      8     -12.2176      2.00000
      9      -9.4260      2.00000
     10      -9.4043      2.00000
     11      -9.1957      2.00000
     12      -9.1031      2.00000
     13      -8.9438      2.00000
     14      -8.9026      2.00000
     15      -4.9931      2.00000
     16      -4.8160      2.00000
     17      -2.3995      2.00000
     18      -2.3140      2.00000
     19      -2.1251      2.00000
     20      -2.0797      2.00000
     21      -1.7472      2.00000
     22      -1.6870      2.00000
     23       0.0092      2.00000
     24       0.1192      2.00000
     25       0.2225      2.00000
     26       0.4363      2.00000
     27       0.7191      2.00000
     28       0.8095      2.00000
     29       0.9865      2.00000
     30       1.2147      2.00000
     31       1.6136      2.00000
     32       1.7131      2.00000
     33       1.9081      2.00000
     34       2.0462      2.00000
     35       2.1958      2.00000
     36       2.3051      2.00000
     37       2.5329      2.00000
     38       2.6701      2.00000
     39       5.8577      0.00000
     40       6.1225      0.00000
     41       6.7226      0.00000
     42       6.8309      0.00000
     43       7.1127      0.00000
     44       7.2325      0.00000
     45       7.4801      0.00000
     46       7.6140      0.00000
     47       8.6757      0.00000
     48       8.7341      0.00000

 k-point     5 :       0.1250    0.1250    0.3750
  band No.  band energies     occupation 
      1     -41.3127      2.00000
      2     -41.3127      2.00000
      3     -40.6281      2.00000
      4     -40.6280      2.00000
      5     -40.6273      2.00000
      6     -40.6272      2.00000
      7     -12.2552      2.00000
      8     -12.1769      2.00000
      9      -9.4100      2.00000
     10      -9.3198      2.00000
     11      -9.2437      2.00000
     12      -9.1307      2.00000
     13      -9.0283      2.00000
     14      -9.0104      2.00000
     15      -5.0642      2.00000
     16      -4.7957      2.00000
     17      -2.1875      2.00000
     18      -2.0815      2.00000
     19      -2.0093      2.00000
     20      -1.9108      2.00000
     21      -1.8446      2.00000
     22      -1.7053      2.00000
     23       0.0390      2.00000
     24       0.1182      2.00000
     25       0.1925      2.00000
     26       0.3747      2.00000
     27       0.5171      2.00000
     28       0.6880      2.00000
     29       1.1462      2.00000
     30       1.3749      2.00000
     31       1.5917      2.00000
     32       1.7102      2.00000
     33       1.8370      2.00000
     34       1.9942      2.00000
     35       2.1436      2.00000
     36       2.3437      2.00000
     37       2.5339      2.00000
     38       2.7192      2.00000
     39       5.4801      0.00000
     40       5.8690      0.00000
     41       6.5023      0.00000
     42       6.6414      0.00000
     43       7.1893      0.00000
     44       7.3127      0.00000
     45       7.4559      0.00000
     46       7.5763      0.00000
     47       8.3978      0.00000
     48       8.7180      0.00000

 k-point     6 :       0.3750    0.1250    0.3750
  band No.  band energies     occupation 
      1     -41.3128      2.00000
      2     -41.3127      2.00000
      3     -40.6280      2.00000
      4     -40.6280      2.00000
      5     -40.6273      2.00000
      6     -40.6273      2.00000
      7     -12.2310      2.00000
      8     -12.1985      2.00000
      9      -9.4370      2.00000
     10      -9.3943      2.00000
     11      -9.1852      2.00000
     12      -9.1497      2.00000
     13      -9.0021      2.00000
     14      -8.9757      2.00000
     15      -4.9845      2.00000
     16      -4.8728      2.00000
     17      -2.2298      2.00000
     18      -2.1957      2.00000
     19      -1.9642      2.00000
     20      -1.8695      2.00000
     21      -1.7277      2.00000
     22      -1.6841      2.00000
     23       0.0452      2.00000
     24       0.0704      2.00000
     25       0.3361      2.00000
     26       0.4626      2.00000
     27       0.5952      2.00000
     28       0.7170      2.00000
     29       1.1537      2.00000
     30       1.2180      2.00000
     31       1.5044      2.00000
     32       1.5963      2.00000
     33       1.8099      2.00000
     34       1.8551      2.00000
     35       2.0057      2.00000
     36       2.0998      2.00000
     37       2.6221      2.00000
     38       2.7475      2.00000
     39       5.6645      0.00000
     40       5.8420      0.00000
     41       6.7451      0.00000
     42       6.9006      0.00000
     43       7.1304      0.00000
     44       7.2505      0.00000
     45       7.5403      0.00000
     46       7.6999      0.00000
     47       8.4840      0.00000
     48       8.7664      0.00000

 k-point     7 :       0.1250    0.3750    0.3750
  band No.  band energies     occupation 
      1     -41.3128      2.00000
      2     -41.3127      2.00000
      3     -40.6281      2.00000
      4     -40.6281      2.00000
      5     -40.6272      2.00000
      6     -40.6272      2.00000
      7     -12.2153      2.00000
      8     -12.1688      2.00000
      9      -9.4053      2.00000
     10      -9.3619      2.00000
     11      -9.2608      2.00000
     12      -9.2040      2.00000
     13      -9.0818      2.00000
     14      -9.0276      2.00000
     15      -4.8772      2.00000
     16      -4.6914      2.00000
     17      -2.1762      2.00000
     18      -2.1355      2.00000
     19      -2.0423      2.00000
     20      -1.9690      2.00000
     21      -1.7186      2.00000
     22      -1.5682      2.00000
     23      -0.0066      2.00000
     24       0.2508      2.00000
     25       0.3326      2.00000
     26       0.4983      2.00000
     27       0.6639      2.00000
     28       0.7912      2.00000
     29       0.9820      2.00000
     30       1.0792      2.00000
     31       1.2253      2.00000
     32       1.3633      2.00000
     33       1.7394      2.00000
     34       2.1421      2.00000
     35       2.2948      2.00000
     36       2.3916      2.00000
     37       2.5354      2.00000
     38       2.6018      2.00000
     39       5.6212      0.00000
     40       5.9594      0.00000
     41       6.5748      0.00000
     42       6.8276      0.00000
     43       6.8530      0.00000
     44       7.0430      0.00000
     45       7.1801      0.00000
     46       7.2977      0.00000
     47       8.5790      0.00000
     48       8.7579      0.00000

 k-point     8 :       0.3750    0.3750    0.3750
  band No.  band energies     occupation 
      1     -41.3128      2.00000
      2     -41.3127      2.00000
      3     -40.6280      2.00000
      4     -40.6280      2.00000
      5     -40.6273      2.00000
      6     -40.6273      2.00000
      7     -12.2004      2.00000
      8     -12.1812      2.00000
      9      -9.3916      2.00000
     10      -9.3737      2.00000
     11      -9.2683      2.00000
     12      -9.2303      2.00000
     13      -9.0616      2.00000
     14      -9.0325      2.00000
     15      -4.7932      2.00000
     16      -4.7152      2.00000
     17      -2.1862      2.00000
     18      -2.1476      2.00000
     19      -1.9650      2.00000
     20      -1.8740      2.00000
     21      -1.7213      2.00000
     22      -1.6407      2.00000
     23      -0.0747      2.00000
     24       0.0532      2.00000
     25       0.3114      2.00000
     26       0.4046      2.00000
     27       0.6254      2.00000
     28       0.6799      2.00000
     29       1.0750      2.00000
     30       1.1509      2.00000
     31       1.3821      2.00000
     32       1.4452      2.00000
     33       1.7130      2.00000
     34       1.9459      2.00000
     35       2.2826      2.00000
     36       2.3229      2.00000
     37       2.5642      2.00000
     38       2.6632      2.00000
     39       5.7945      0.00000
     40       5.9594      0.00000
     41       6.7181      0.00000
     42       6.7392      0.00000
     43       7.0436      0.00000
     44       7.1795      0.00000
     45       7.3558      0.00000
     46       7.4576      0.00000
     47       8.6085      0.00000
     48       8.7778      0.00000


--------------------------------------------------------------------------------------------------------


 soft charge-density along one line, spin component           1
         0         1         2         3         4         5         6         7         8         9
 total charge-density along one line
 
 pseudopotential strength for first ion, spin component:           1
 29.974  37.398   0.001  -0.002  -0.000   0.002  -0.003  -0.000
 37.398  46.665   0.002  -0.002  -0.000   0.003  -0.004  -0.000
  0.001   0.002   6.572   0.001  -0.000  10.177   0.001  -0.000
 -0.002  -0.002   0.001   6.572  -0.000   0.001  10.177  -0.000
 -0.000  -0.000  -0.000  -0.000   6.571  -0.000  -0.000  10.175
  0.002   0.003  10.177   0.001  -0.000  15.778   0.002  -0.000
 -0.003  -0.004   0.001  10.177  -0.000   0.002  15.778  -0.000
 -0.000  -0.000  -0.000  -0.000  10.175  -0.000  -0.000  15.775
 total augmentation occupancy for first ion, spin component:           1
 11.177  -6.463   0.119  -0.275   0.000  -0.041   0.121   0.000
 -6.463   4.216  -0.093   0.218   0.000   0.027  -0.089   0.000
  0.119  -0.093   4.359   0.096   0.000  -1.461  -0.048   0.000
 -0.275   0.218   0.096   4.555   0.000  -0.048  -1.544   0.000
  0.000   0.000   0.000   0.000   4.232   0.000   0.000  -1.392
 -0.041   0.027  -1.461  -0.048   0.000   0.529   0.022   0.000
  0.121  -0.089  -0.048  -1.544   0.000   0.022   0.566   0.000
  0.000   0.000   0.000   0.000  -1.392   0.000   0.000   0.498


------------------------ aborting loop because EDIFF is reached ----------------------------------------


    CHARGE:  cpu time    0.0166: real time    0.0166
    FORLOC:  cpu time    0.0007: real time    0.0007
    FORNL :  cpu time    0.0363: real time    0.0363
    STRESS:  cpu time    0.1034: real time    0.1034
    FORCOR:  cpu time    0.0036: real time    0.0036
    FORHAR:  cpu time    0.0025: real time    0.0025
    MIXING:  cpu time    0.0004: real time    0.0004
    OFIELD:  cpu time    0.0000: real time    0.0000

  FORCE on cell =-STRESS in cart. coord.  units (eV):
  Direction    XX          YY          ZZ          XY          YZ          ZX
  --------------------------------------------------------------------------------------
  Alpha Z    70.31208    70.31208    70.31208
  Ewald    -932.74623  -993.16110  -828.98984    -0.00000    -0.00000    -0.00000
  Hartree   210.93506   174.47500   260.68044    -0.00000    -0.00000    -0.00000
  E(xc)    -277.27497  -277.19555  -277.25174    -0.00000     0.00000     0.00000
  Local    -632.23717  -531.95672  -777.05320     0.00000     0.00000     0.00000
  n-local   610.55529   609.18999   609.80128    -0.44160     0.04712     0.00504
  augment   -43.76027   -43.37765   -42.91911    -0.00000    -0.00000     0.00000
  Kinetic   994.59127   991.67313   986.05052    -0.00509    -0.12018     0.05577
  Fock        0.00000     0.00000     0.00000     0.00000     0.00000     0.00000
  -------------------------------------------------------------------------------------
  Total       0.37505    -0.04084     0.63042     0.00000     0.00000     0.00000
  in kB       2.14113    -0.23313     3.59896     0.00000     0.00000     0.00000
  external pressure =        1.84 kB  Pullay stress =        0.00 kB


 VOLUME and BASIS-vectors are now :
 -----------------------------------------------------------------------------
  energy-cutoff  :      420.00
  volume of cell :      280.65
      direct lattice vectors                 reciprocal lattice vectors
     7.709759075  0.000000000  0.000000000     0.129705739  0.000000000  0.000000000
     0.000000000  6.149522862  0.000000000     0.000000000  0.162614242  0.000000000
     0.000000000  0.000000000  5.919431985     0.000000000  0.000000000  0.168935128

  length of vectors
     7.709759075  6.149522862  5.919431985     0.129705739  0.162614242  0.168935128


 FORCES acting on ions
    electron-ion (+dipol)            ewald-force                    non-local-force                 convergence-correction
 -----------------------------------------------------------------------------------------------
   -.201E-10 -.107E+02 -.173E+02   0.176E-08 0.105E+02 0.174E+02   0.000E+00 0.232E+00 -.154E+00   0.353E-12 -.119E-02 0.118E-02
   -.947E-08 0.107E+02 -.173E+02   -.290E-08 -.105E+02 0.174E+02   0.000E+00 -.232E+00 -.154E+00   0.596E-12 0.119E-02 0.118E-02
   -.680E+02 0.883E+01 0.851E+01   0.691E+02 -.102E+02 -.101E+02   -.107E+01 0.133E+01 0.161E+01   -.114E-02 -.772E-03 0.522E-03
   0.680E+02 -.883E+01 0.851E+01   -.691E+02 0.102E+02 -.101E+02   0.107E+01 -.133E+01 0.161E+01   0.114E-02 0.772E-03 0.522E-03
   -.680E+02 -.883E+01 0.851E+01   0.691E+02 0.102E+02 -.101E+02   -.107E+01 -.133E+01 0.161E+01   -.114E-02 0.772E-03 0.522E-03
   0.680E+02 0.883E+01 0.851E+01   -.691E+02 -.102E+02 -.101E+02   0.107E+01 0.133E+01 0.161E+01   0.114E-02 -.772E-03 0.522E-03
   -.100E-09 -.553E+02 0.487E+02   0.527E-08 0.568E+02 -.492E+02   0.000E+00 -.149E+01 0.484E+00   0.755E-12 0.205E-02 0.277E-02
   -.240E-07 0.553E+02 0.487E+02   -.582E-08 -.568E+02 -.492E+02   0.000E+00 0.149E+01 0.484E+00   -.173E-12 -.205E-02 0.277E-02
   0.487E-09 -.455E+02 -.502E+02   0.361E-08 0.475E+02 0.525E+02   0.000E+00 -.203E+01 -.222E+01   0.416E-13 -.333E-02 -.386E-02
   -.240E-07 0.455E+02 -.502E+02   -.437E-08 -.475E+02 0.525E+02   0.000E+00 0.203E+01 -.222E+01   -.772E-12 0.333E-02 -.386E-02
   0.346E-09 0.267E+02 0.159E+02   0.327E-08 -.258E+02 -.156E+02   0.000E+00 -.814E+00 -.244E+00   -.191E-12 0.967E-03 0.108E-02
   -.158E-07 -.267E+02 0.159E+02   -.391E-08 0.258E+02 -.156E+02   0.000E+00 0.814E+00 -.244E+00   -.403E-12 -.967E-03 0.108E-02
   -.913E+01 -.191E+02 -.832E+01   0.924E+01 0.185E+02 0.758E+01   -.135E+00 0.561E+00 0.755E+00   0.481E-03 -.417E-03 -.472E-03
   0.913E+01 0.191E+02 -.832E+01   -.924E+01 -.185E+02 0.758E+01   0.135E+00 -.561E+00 0.755E+00   -.481E-03 0.417E-03 -.472E-03
   -.913E+01 0.191E+02 -.832E+01   0.924E+01 -.185E+02 0.758E+01   -.135E+00 -.561E+00 0.755E+00   0.481E-03 0.417E-03 -.472E-03
   0.913E+01 -.191E+02 -.832E+01   -.924E+01 0.185E+02 0.758E+01   0.135E+00 0.561E+00 0.755E+00   -.481E-03 -.417E-03 -.472E-03
 -----------------------------------------------------------------------------------------------
   -.131E-06 -.193E-06 -.518E+01   0.178E-14 0.817E-13 0.888E-15   0.000E+00 0.333E-15 0.517E+01   -.243E-12 0.252E-11 0.253E-02
 
 
 POSITION                                       TOTAL-FORCE (eV/Angst)
 -----------------------------------------------------------------------------------
     -0.00000      4.74806      2.97484         0.000000      0.015757     -0.022409
      3.85488      1.40146      0.01513         0.000000     -0.015757     -0.022409
      1.61771      3.71443      2.27555         0.004906     -0.007677     -0.001559
      2.23717      2.43510      5.23526        -0.004906      0.007677     -0.001559
      5.47259      2.43510      5.23526         0.004906      0.007677     -0.001559
      6.09205      3.71443      2.27555        -0.004906     -0.007677     -0.001559
     -0.00000      0.40329      2.04517         0.000000     -0.006825     -0.037201
      3.85488      5.74623      5.00488         0.000000      0.006825     -0.037201
     -0.00000      5.02804      4.98356         0.000000     -0.048500      0.042616
      3.85488      1.12148      2.02384         0.000000      0.048500      0.042616
     -0.00000      2.67184      0.54686         0.000000      0.020238      0.004086
      3.85488      3.47769      3.50658         0.000000     -0.020238      0.004086
      2.07313      4.73716      0.18293        -0.030679     -0.009649      0.008013
      1.78175      1.41237      3.14265         0.030679      0.009649      0.008013
      5.92801      1.41237      3.14265        -0.030679      0.009649      0.008013
      5.63663      4.73716      0.18293         0.030679     -0.009649      0.008013
 -----------------------------------------------------------------------------------
    total drift:                               -0.000000     -0.000000     -0.000570


--------------------------------------------------------------------------------------------------------



  FREE ENERGIE OF THE ION-ELECTRON SYSTEM (eV)
  ---------------------------------------------------
  free  energy   TOTEN  =       -76.86840203 eV

  energy  without entropy=      -76.86840203  energy(sigma->0) =      -76.86840203
 
 d Force = 0.2407525E-03[-0.474E-04, 0.529E-03]  d Energy =-0.9497416E-04 0.336E-03
 d Force =-0.6901820E+00[-0.692E+00,-0.688E+00]  d Ewald  = 0.1547212E+00-0.845E+00


--------------------------------------------------------------------------------------------------------


    POTLOK:  cpu time    0.0039: real time    0.0039


--------------------------------------------------------------------------------------------------------




--------------------------------------------------------------------------------------------------------


  
 reached required accuracy - stopping structural energy minimisation
     LOOP+:  cpu time    1.0635: real time    1.0719
    4ORBIT:  cpu time    0.0000: real time    0.0000
 BZINTS: Fermi energy:  2.879644; 76.000000 electrons
         Band energy:-650.403231;  BLOECHL correction:  0.000000

 total amount of memory used by VASP MPI-rank0    33595. kBytes
=======================================================================

   base      :      30000. kBytes
   nonlr-proj:       1230. kBytes
   fftplans  :        656. kBytes
   grid      :       1147. kBytes
   one-center:          3. kBytes
   wavefun   :        559. kBytes
 
  
  
 General timing and accounting informations for this job:
 ========================================================
  
                  Total CPU time used (sec):       15.100
                            User time (sec):       14.629
                          System time (sec):        0.471
                         Elapsed time (sec):       16.472
  
                   Maximum memory used (kb):      148936.
                   Average memory used (kb):           0.
  
                          Minor page faults:        31985
                          Major page faults:           89
                 Voluntary context switches:         2489
