<?xml version="1.0" encoding="ISO-8859-1"?>
<modeling>
 <generator>
  <i name="program" type="string">vasp </i>
  <i name="version" type="string">5.4.4.18Apr17-6-g9f103f2a35  </i>
  <i name="subversion" type="string">(build Feb 28 2020 14:15:47) complex            parallel </i>
  <i name="platform" type="string">LinuxIFC </i>
  <i name="date" type="string">2022 08 07 </i>
  <i name="time" type="string">08:22:25 </i>
 </generator>
 <incar>
  <i type="int" name="ISTART">     0</i>
  <i type="string" name="PREC">accurate</i>
  <i type="string" name="ALGO"> FAST</i>
  <i type="int" name="ISPIN">     1</i>
  <i type="int" name="ICHARG">     2</i>
  <i type="int" name="INIWAV">     1</i>
  <i type="int" name="NELM">   100</i>
  <i type="int" name="IBRION">     2</i>
  <i name="EDIFF">      0.00002000</i>
  <i name="EDIFFG">      0.00020000</i>
  <i type="int" name="NSW">   100</i>
  <i type="int" name="ISIF">     3</i>
  <i name="ENCUT">    420.00000000</i>
  <i type="string" name="LREAL"> AUTO</i>
  <i type="int" name="ISMEAR">    -5</i>
  <i type="logical" name="LWAVE"> F  </i>
  <i type="logical" name="LCHARG"> F  </i>
  <v type="int" name="KPOINT_BSE">    -1     0     0     0</v>
  <i type="int" name="NELM">   100</i>
 </incar>
 <structure name="primitive_cell" >
  <crystal>
   <varray name="basis" >
    <v>       7.79797607       0.00000000       0.00000000 </v>
    <v>       0.00000000       6.14113706       0.00000000 </v>
    <v>       0.00000000       0.00000000       5.92886383 </v>
   </varray>
   <i name="volume">    283.92403868 </i>
   <varray name="rec_basis" >
    <v>       0.12823840       0.00000000       0.00000000 </v>
    <v>       0.00000000       0.16283629       0.00000000 </v>
    <v>       0.00000000       0.00000000       0.16866638 </v>
   </varray>
  </crystal>
  <varray name="positions" >
   <v>       0.00000000      -0.22859044      -0.49735507 </v>
   <v>       0.00000000       0.06119827       0.33827546 </v>
   <v>       0.00000000      -0.17913894      -0.15888400 </v>
   <v>       0.20817983      -0.39987082       0.39229410 </v>
   <v>      -0.20817983      -0.39987082       0.39229410 </v>
   <v>       0.00000000       0.43229912       0.08997410 </v>
   <v>      -0.23339545       0.23402890      -0.47180603 </v>
   <v>       0.23339545       0.23402890      -0.47180603 </v>
   <v>       0.26660455      -0.23402890       0.02819397 </v>
   <v>      -0.26660455      -0.23402890       0.02819397 </v>
   <v>      -0.29182017       0.39987082      -0.10770590 </v>
   <v>       0.29182017       0.39987082      -0.10770590 </v>
   <v>      -0.50000000      -0.43229912      -0.41002590 </v>
   <v>      -0.50000000      -0.06119827      -0.16172454 </v>
   <v>      -0.50000000       0.17913894       0.34111600 </v>
   <v>      -0.50000000       0.22859044       0.00264493 </v>
  </varray>
 </structure>
 <varray name="primitive_index" >
  <v type="int" >        1 </v>
  <v type="int" >        7 </v>
  <v type="int" >        9 </v>
  <v type="int" >        3 </v>
  <v type="int" >        6 </v>
  <v type="int" >       11 </v>
  <v type="int" >       15 </v>
  <v type="int" >       14 </v>
  <v type="int" >       13 </v>
  <v type="int" >       16 </v>
  <v type="int" >        5 </v>
  <v type="int" >        4 </v>
  <v type="int" >       12 </v>
  <v type="int" >        8 </v>
  <v type="int" >       10 </v>
  <v type="int" >        2 </v>
 </varray>
 <kpoints>
  <generation param="Monkhorst-Pack">
   <v type="int" name="divisions">       4        4        4 </v>
   <v name="usershift">      0.00000000       0.00000000       0.00000000 </v>
   <v name="genvec1">      0.25000000       0.00000000       0.00000000 </v>
   <v name="genvec2">      0.00000000       0.25000000       0.00000000 </v>
   <v name="genvec3">      0.00000000       0.00000000       0.25000000 </v>
   <v name="shift">      0.50000000       0.50000000       0.50000000 </v>
  </generation>
  <varray name="kpointlist" >
   <v>       0.12500000       0.12500000       0.12500000 </v>
   <v>       0.37500000       0.12500000       0.12500000 </v>
   <v>       0.12500000       0.37500000       0.12500000 </v>
   <v>       0.37500000       0.37500000       0.12500000 </v>
   <v>       0.12500000       0.12500000       0.37500000 </v>
   <v>       0.37500000       0.12500000       0.37500000 </v>
   <v>       0.12500000       0.37500000       0.37500000 </v>
   <v>       0.37500000       0.37500000       0.37500000 </v>
  </varray>
  <varray name="weights" >
   <v>       0.12500000 </v>
   <v>       0.12500000 </v>
   <v>       0.12500000 </v>
   <v>       0.12500000 </v>
   <v>       0.12500000 </v>
   <v>       0.12500000 </v>
   <v>       0.12500000 </v>
   <v>       0.12500000 </v>
  </varray>
  <varray name="tetrahedronlist"  type="int" >
   <v type="int" >        2        1        2        4        5 </v>
   <v type="int" >        2        1        3        4        5 </v>
   <v type="int" >        2        3        4        5        7 </v>
   <v type="int" >        2        2        4        5        6 </v>
   <v type="int" >        2        4        5        6        8 </v>
   <v type="int" >        2        4        5        7        8 </v>
   <v type="int" >        2        2        2        4        6 </v>
   <v type="int" >        2        2        4        4        6 </v>
   <v type="int" >        2        4        4        6        8 </v>
   <v type="int" >        2        2        4        6        6 </v>
   <v type="int" >        2        4        6        6        8 </v>
   <v type="int" >        2        4        6        8        8 </v>
   <v type="int" >        2        1        2        3        6 </v>
   <v type="int" >        2        2        3        4        6 </v>
   <v type="int" >        2        3        4        6        8 </v>
   <v type="int" >        2        1        3        5        6 </v>
   <v type="int" >        2        3        5        6        7 </v>
   <v type="int" >        2        3        6        7        8 </v>
   <v type="int" >        2        1        1        3        5 </v>
   <v type="int" >        2        1        3        3        5 </v>
   <v type="int" >        2        3        3        5        7 </v>
   <v type="int" >        2        1        3        5        5 </v>
   <v type="int" >        2        3        5        5        7 </v>
   <v type="int" >        2        3        5        7        7 </v>
   <v type="int" >        2        3        4        4        7 </v>
   <v type="int" >        2        3        3        4        7 </v>
   <v type="int" >        2        3        4        7        7 </v>
   <v type="int" >        2        4        4        7        8 </v>
   <v type="int" >        2        4        7        8        8 </v>
   <v type="int" >        2        4        7        7        8 </v>
   <v type="int" >        4        4        4        4        8 </v>
   <v type="int" >        4        4        4        8        8 </v>
   <v type="int" >        4        4        8        8        8 </v>
   <v type="int" >        2        3        3        4        8 </v>
   <v type="int" >        2        3        4        4        8 </v>
   <v type="int" >        2        3        4        8        8 </v>
   <v type="int" >        2        3        3        7        8 </v>
   <v type="int" >        2        3        7        7        8 </v>
   <v type="int" >        2        3        7        8        8 </v>
   <v type="int" >        4        3        3        3        7 </v>
   <v type="int" >        4        3        3        7        7 </v>
   <v type="int" >        4        3        7        7        7 </v>
   <v type="int" >        2        2        3        4        7 </v>
   <v type="int" >        2        1        2        3        7 </v>
   <v type="int" >        2        1        2        5        7 </v>
   <v type="int" >        2        2        4        7        8 </v>
   <v type="int" >        2        2        6        7        8 </v>
   <v type="int" >        2        2        5        6        7 </v>
   <v type="int" >        2        2        4        4        8 </v>
   <v type="int" >        2        2        2        4        8 </v>
   <v type="int" >        2        2        2        6        8 </v>
   <v type="int" >        2        2        4        8        8 </v>
   <v type="int" >        2        2        6        8        8 </v>
   <v type="int" >        2        2        6        6        8 </v>
   <v type="int" >        2        1        3        4        8 </v>
   <v type="int" >        2        1        2        4        8 </v>
   <v type="int" >        2        1        2        6        8 </v>
   <v type="int" >        2        1        3        7        8 </v>
   <v type="int" >        2        1        5        7        8 </v>
   <v type="int" >        2        1        5        6        8 </v>
   <v type="int" >        2        1        3        3        7 </v>
   <v type="int" >        2        1        1        3        7 </v>
   <v type="int" >        2        1        1        5        7 </v>
   <v type="int" >        2        1        3        7        7 </v>
   <v type="int" >        2        1        5        7        7 </v>
   <v type="int" >        2        1        5        5        7 </v>
   <v type="int" >        2        1        2        2        5 </v>
   <v type="int" >        2        1        1        2        5 </v>
   <v type="int" >        2        1        2        5        5 </v>
   <v type="int" >        2        2        2        5        6 </v>
   <v type="int" >        2        2        5        6        6 </v>
   <v type="int" >        2        2        5        5        6 </v>
   <v type="int" >        4        2        2        2        6 </v>
   <v type="int" >        4        2        2        6        6 </v>
   <v type="int" >        4        2        6        6        6 </v>
   <v type="int" >        2        1        1        2        6 </v>
   <v type="int" >        2        1        2        2        6 </v>
   <v type="int" >        2        1        2        6        6 </v>
   <v type="int" >        2        1        1        5        6 </v>
   <v type="int" >        2        1        5        5        6 </v>
   <v type="int" >        2        1        5        6        6 </v>
   <v type="int" >        4        1        1        1        5 </v>
   <v type="int" >        4        1        1        5        5 </v>
   <v type="int" >        4        1        5        5        5 </v>
   <v type="int" >        2        5        5        6        8 </v>
   <v type="int" >        2        5        5        7        8 </v>
   <v type="int" >        2        5        7        7        8 </v>
   <v type="int" >        2        5        6        6        8 </v>
   <v type="int" >        2        5        6        8        8 </v>
   <v type="int" >        2        5        7        8        8 </v>
   <v type="int" >        4        6        6        6        8 </v>
   <v type="int" >        4        6        6        8        8 </v>
   <v type="int" >        4        6        8        8        8 </v>
   <v type="int" >        2        5        6        6        7 </v>
   <v type="int" >        2        6        6        7        8 </v>
   <v type="int" >        2        6        7        8        8 </v>
   <v type="int" >        2        5        5        6        7 </v>
   <v type="int" >        2        5        6        7        7 </v>
   <v type="int" >        2        6        7        7        8 </v>
   <v type="int" >        4        5        5        5        7 </v>
   <v type="int" >        4        5        5        7        7 </v>
   <v type="int" >        4        5        7        7        7 </v>
   <v type="int" >        4        7        7        8        8 </v>
   <v type="int" >        4        7        7        7        8 </v>
   <v type="int" >        4        7        8        8        8 </v>
   <v type="int" >        6        8        8        8        8 </v>
   <v type="int" >        6        7        7        7        7 </v>
   <v type="int" >        4        5        5        6        6 </v>
   <v type="int" >        4        5        5        5        6 </v>
   <v type="int" >        4        5        6        6        6 </v>
   <v type="int" >        6        6        6        6        6 </v>
   <v type="int" >        6        5        5        5        5 </v>
   <v type="int" >        2        1        1        2        4 </v>
   <v type="int" >        2        1        1        3        4 </v>
   <v type="int" >        2        1        3        3        4 </v>
   <v type="int" >        2        1        2        2        4 </v>
   <v type="int" >        2        1        2        4        4 </v>
   <v type="int" >        2        1        3        4        4 </v>
   <v type="int" >        4        2        2        2        4 </v>
   <v type="int" >        4        2        2        4        4 </v>
   <v type="int" >        4        2        4        4        4 </v>
   <v type="int" >        2        1        2        2        3 </v>
   <v type="int" >        2        2        2        3        4 </v>
   <v type="int" >        2        2        3        4        4 </v>
   <v type="int" >        2        1        1        2        3 </v>
   <v type="int" >        2        1        2        3        3 </v>
   <v type="int" >        2        2        3        3        4 </v>
   <v type="int" >        4        1        1        1        3 </v>
   <v type="int" >        4        1        1        3        3 </v>
   <v type="int" >        4        1        3        3        3 </v>
   <v type="int" >        4        3        3        4        4 </v>
   <v type="int" >        4        3        3        3        4 </v>
   <v type="int" >        4        3        4        4        4 </v>
   <v type="int" >        6        4        4        4        4 </v>
   <v type="int" >        6        3        3        3        3 </v>
   <v type="int" >        4        1        1        2        2 </v>
   <v type="int" >        4        1        1        1        2 </v>
   <v type="int" >        4        1        2        2        2 </v>
   <v type="int" >        6        2        2        2        2 </v>
   <v type="int" >        6        1        1        1        1 </v>
  </varray>
  <i name="volumeweight">      0.00260417 </i>
 </kpoints>
 <parameters>
  <separator name="general" >
   <i type="string" name="SYSTEM">unknown system</i>
   <i type="logical" name="LCOMPAT"> F  </i>
  </separator>
  <separator name="electronic" >
   <i type="string" name="PREC">accura</i>
   <i name="ENMAX">    420.00000000</i>
   <i name="ENAUG">    628.94500000</i>
   <i name="EDIFF">      0.00002000</i>
   <i type="int" name="IALGO">    68</i>
   <i type="int" name="IWAVPR">    11</i>
   <i type="int" name="NBANDS">    48</i>
   <i name="NELECT">     76.00000000</i>
   <i type="int" name="TURBO">     0</i>
   <i type="int" name="IRESTART">     0</i>
   <i type="int" name="NREBOOT">     0</i>
   <i type="int" name="NMIN">     0</i>
   <i name="EREF">      0.00000000</i>
   <separator name="electronic smearing" >
    <i type="int" name="ISMEAR">    -5</i>
    <i name="SIGMA">      0.20000000</i>
    <i name="KSPACING">      0.50000000</i>
    <i type="logical" name="KGAMMA"> T  </i>
   </separator>
   <separator name="electronic projectors" >
    <i type="logical" name="LREAL"> T  </i>
    <v name="ROPT">     -0.00025000     -0.00025000     -0.00025000</v>
    <i type="int" name="LMAXPAW">  -100</i>
    <i type="int" name="LMAXMIX">     2</i>
    <i type="logical" name="NLSPLINE"> F  </i>
   </separator>
   <separator name="electronic startup" >
    <i type="int" name="ISTART">     0</i>
    <i type="int" name="ICHARG">     2</i>
    <i type="int" name="INIWAV">     1</i>
   </separator>
   <separator name="electronic spin" >
    <i type="int" name="ISPIN">     1</i>
    <i type="logical" name="LNONCOLLINEAR"> F  </i>
    <v name="MAGMOM">      1.00000000      1.00000000      1.00000000      1.00000000      1.00000000      1.00000000      1.00000000      1.00000000      1.00000000      1.00000000      1.00000000      1.00000000      1.00000000      1.00000000      1.00000000      1.00000000</v>
    <i name="NUPDOWN">     -1.00000000</i>
    <i type="logical" name="LSORBIT"> F  </i>
    <v name="SAXIS">      0.00000000      0.00000000      1.00000000</v>
    <i type="logical" name="LSPIRAL"> F  </i>
    <v name="QSPIRAL">      0.00000000      0.00000000      0.00000000</v>
    <i type="logical" name="LZEROZ"> F  </i>
   </separator>
   <separator name="electronic exchange-correlation" >
    <i type="logical" name="LASPH"> F  </i>
    <i type="logical" name="LMETAGGA"> F  </i>
   </separator>
   <separator name="electronic convergence" >
    <i type="int" name="NELM">   100</i>
    <i type="int" name="NELMDL">    -5</i>
    <i type="int" name="NELMIN">     2</i>
    <i name="ENINI">    420.00000000</i>
    <separator name="electronic convergence detail" >
     <i type="logical" name="LDIAG"> T  </i>
     <i type="logical" name="LSUBROT"> F  </i>
     <i name="WEIMIN">      0.00100000</i>
     <i name="EBREAK">      0.00000010</i>
     <i name="DEPER">      0.30000000</i>
     <i type="int" name="NRMM">     4</i>
     <i name="TIME">      0.40000000</i>
    </separator>
   </separator>
   <separator name="electronic mixer" >
    <i name="AMIX">      0.40000000</i>
    <i name="BMIX">      1.00000000</i>
    <i name="AMIN">      0.10000000</i>
    <i name="AMIX_MAG">      1.60000000</i>
    <i name="BMIX_MAG">      1.00000000</i>
    <separator name="electronic mixer details" >
     <i type="int" name="IMIX">     4</i>
     <i type="logical" name="MIXFIRST"> F  </i>
     <i type="int" name="MAXMIX">   -45</i>
     <i name="WC">    100.00000000</i>
     <i type="int" name="INIMIX">     1</i>
     <i type="int" name="MIXPRE">     1</i>
     <i type="int" name="MREMOVE">     5</i>
    </separator>
   </separator>
   <separator name="electronic dipolcorrection" >
    <i type="logical" name="LDIPOL"> F  </i>
    <i type="logical" name="LMONO"> F  </i>
    <i type="int" name="IDIPOL">     0</i>
    <i name="EPSILON">      1.00000000</i>
    <v name="DIPOL">   -100.00000000   -100.00000000   -100.00000000</v>
    <i name="EFIELD">      0.00000000</i>
   </separator>
  </separator>
  <separator name="grids" >
   <i type="int" name="NGX">    54</i>
   <i type="int" name="NGY">    42</i>
   <i type="int" name="NGZ">    40</i>
   <i type="int" name="NGXF">   108</i>
   <i type="int" name="NGYF">    84</i>
   <i type="int" name="NGZF">    80</i>
   <i type="logical" name="ADDGRID"> F  </i>
  </separator>
  <separator name="ionic" >
   <i type="int" name="NSW">   100</i>
   <i type="int" name="IBRION">     2</i>
   <i type="int" name="MDALGO">     0</i>
   <i type="int" name="ISIF">     3</i>
   <i name="PSTRESS">      0.00000000</i>
   <i name="EDIFFG">      0.00020000</i>
   <i type="int" name="NFREE">     1</i>
   <i name="POTIM">      0.50000000</i>
   <i name="SMASS">     -3.00000000</i>
   <i name="SCALEE">      1.00000000</i>
  </separator>
  <separator name="ionic md" >
   <i name="TEBEG">      0.00010000</i>
   <i name="TEEND">      0.00010000</i>
   <i type="int" name="NBLOCK">     1</i>
   <i type="int" name="KBLOCK">   100</i>
   <i type="int" name="NPACO">   256</i>
   <i name="APACO">     16.00000000</i>
  </separator>
  <separator name="symmetry" >
   <i type="int" name="ISYM">     2</i>
   <i name="SYMPREC">      0.00001000</i>
  </separator>
  <separator name="dos" >
   <i type="int" name="LORBIT">     0</i>
   <v name="RWIGS">     -1.00000000     -1.00000000     -1.00000000</v>
   <i type="int" name="NEDOS">   301</i>
   <i name="EMIN">     10.00000000</i>
   <i name="EMAX">    -10.00000000</i>
   <i name="EFERMI">      0.00000000</i>
  </separator>
  <separator name="writing" >
   <i type="int" name="NWRITE">     2</i>
   <i type="logical" name="LWAVE"> F  </i>
   <i type="logical" name="LDOWNSAMPLE"> F  </i>
   <i type="logical" name="LCHARG"> F  </i>
   <i type="logical" name="LPARD"> F  </i>
   <i type="logical" name="LVTOT"> F  </i>
   <i type="logical" name="LVHAR"> F  </i>
   <i type="logical" name="LELF"> F  </i>
   <i type="logical" name="LOPTICS"> F  </i>
   <v name="STM">      0.00000000      0.00000000      0.00000000      0.00000000      0.00000000      0.00000000      0.00000000</v>
  </separator>
  <separator name="performance" >
   <i type="int" name="NPAR">     4</i>
   <i type="int" name="NSIM">     4</i>
   <i type="int" name="NBLK">    -1</i>
   <i type="logical" name="LPLANE"> T  </i>
   <i type="logical" name="LSCALAPACK"> T  </i>
   <i type="logical" name="LSCAAWARE"> F  </i>
   <i type="logical" name="LSCALU"> F  </i>
   <i type="logical" name="LASYNC"> F  </i>
   <i type="logical" name="LORBITALREAL"> F  </i>
  </separator>
  <separator name="miscellaneous" >
   <i type="int" name="IDIOT">     3</i>
   <i type="int" name="ISPECIAL">     0</i>
   <i type="logical" name="LMUSIC"> F  </i>
   <v name="POMASS">     30.97400000     32.06600000      7.01000000</v>
   <v name="DARWINR">      0.00000000      0.00000000      0.00000000</v>
   <v name="DARWINV">      1.00000000      1.00000000      1.00000000</v>
   <i type="logical" name="LCORR"> T  </i>
  </separator>
  <i type="logical" name="GGA_COMPAT"> T  </i>
  <i type="logical" name="LBERRY"> F  </i>
  <i type="int" name="ICORELEVEL">     0</i>
  <i type="logical" name="LDAU"> F  </i>
  <i type="int" name="I_CONSTRAINED_M">     0</i>
  <separator name="electronic exchange-correlation" >
   <i type="string" name="GGA">--</i>
   <i type="int" name="VOSKOWN">     0</i>
   <i type="logical" name="LHFCALC"> F  </i>
   <i type="string" name="PRECFOCK"></i>
   <i type="logical" name="LSYMGRAD"> F  </i>
   <i type="logical" name="LHFONE"> F  </i>
   <i type="logical" name="LRHFCALC"> F  </i>
   <i type="logical" name="LTHOMAS"> F  </i>
   <i type="logical" name="LMODELHF"> F  </i>
   <i name="ENCUT4O">     -1.00000000</i>
   <i type="int" name="EXXOEP">     0</i>
   <i type="int" name="FOURORBIT">     0</i>
   <i name="AEXX">      0.00000000</i>
   <i name="HFALPHA">      0.00000000</i>
   <i name="MCALPHA">      0.00000000</i>
   <i name="ALDAX">      1.00000000</i>
   <i name="AGGAX">      1.00000000</i>
   <i name="ALDAC">      1.00000000</i>
   <i name="AGGAC">      1.00000000</i>
   <i type="int" name="NKREDX">     1</i>
   <i type="int" name="NKREDY">     1</i>
   <i type="int" name="NKREDZ">     1</i>
   <i type="logical" name="SHIFTRED"> F  </i>
   <i type="logical" name="ODDONLY"> F  </i>
   <i type="logical" name="EVENONLY"> F  </i>
   <i type="int" name="LMAXFOCK">     0</i>
   <i type="int" name="NMAXFOCKAE">     0</i>
   <i type="logical" name="LFOCKAEDFT"> F  </i>
   <i name="HFSCREEN">      0.00000000</i>
   <i name="HFSCREENC">      0.00000000</i>
   <i type="int" name="NBANDSGWLOW">     0</i>
  </separator>
  <separator name="vdW DFT" >
   <i type="logical" name="LUSE_VDW"> F  </i>
   <i name="Zab_VDW">     -0.84910000</i>
   <i name="PARAM1">      0.12340000</i>
   <i name="PARAM2">      1.00000000</i>
   <i name="PARAM3">      0.00000000</i>
  </separator>
  <separator name="model GW" >
   <i type="int" name="MODEL_GW">     0</i>
   <i name="MODEL_EPS0">     10.64715145</i>
   <i name="MODEL_ALPHA">      1.00000000</i>
  </separator>
  <separator name="linear response parameters" >
   <i type="logical" name="LEPSILON"> F  </i>
   <i type="logical" name="LRPA"> F  </i>
   <i type="logical" name="LNABLA"> F  </i>
   <i type="logical" name="LVEL"> F  </i>
   <i type="int" name="KINTER">     0</i>
   <i name="CSHIFT">      0.10000000</i>
   <i name="OMEGAMAX">     -1.00000000</i>
   <i name="DEG_THRESHOLD">      0.00200000</i>
   <i name="RTIME">     -0.10000000</i>
   <i name="WPLASMAI">      0.00000000</i>
   <v name="DFIELD">      0.00000000      0.00000000      0.00000000</v>
   <v name="WPLASMA">      0.00000000      0.00000000      0.00000000      0.00000000      0.00000000      0.00000000      0.00000000      0.00000000      0.00000000</v>
  </separator>
  <separator name="orbital magnetization" >
   <i type="logical" name="NUCIND"> F  </i>
   <v name="MAGPOS">      0.00000000      0.00000000      0.00000000</v>
   <i type="logical" name="LNICSALL"> T  </i>
   <i type="logical" name="ORBITALMAG"> F  </i>
   <i type="logical" name="LMAGBLOCH"> F  </i>
   <i type="logical" name="LCHIMAG"> F  </i>
   <i type="logical" name="LGAUGE"> T  </i>
   <i type="int" name="MAGATOM">     0</i>
   <v name="MAGDIPOL">      0.00000000      0.00000000      0.00000000</v>
   <v name="AVECCONST">      0.00000000      0.00000000      0.00000000</v>
  </separator>
  <separator name="response functions" >
   <i type="logical" name="LADDER"> F  </i>
   <i type="logical" name="LRPAFORCE"> F  </i>
   <i type="logical" name="LFXC"> F  </i>
   <i type="logical" name="LHARTREE"> T  </i>
   <i type="int" name="IBSE">     0</i>
   <v type="int" name="KPOINT">    -1     0     0     0</v>
   <i type="logical" name="LTCTE"> F  </i>
   <i type="logical" name="LTETE"> F  </i>
   <i type="logical" name="LTRIPLET"> F  </i>
   <i type="logical" name="LFXCEPS"> F  </i>
   <i type="logical" name="LFXHEG"> F  </i>
   <i type="int" name="NATURALO">     2</i>
   <i type="logical" name="L2ORDER"> F  </i>
   <i type="logical" name="LMP2LT"> F  </i>
   <i type="logical" name="LUSEW"> F  </i>
   <i name="ENCUTGW">     -2.00000000</i>
   <i name="ENCUTGWSOFT">     -2.00000000</i>
   <i name="ENCUTLF">     -1.00000000</i>
   <i type="int" name="LMAXMP2">    -1</i>
   <i name="SCISSOR">      0.00000000</i>
   <i type="int" name="NOMEGA">     0</i>
   <i type="int" name="NOMEGAR">     0</i>
   <i type="int" name="NBANDSGW">    -1</i>
   <i type="int" name="NBANDSO">    -1</i>
   <i type="int" name="NBANDSV">    -1</i>
   <i type="int" name="NELM">   100</i>
   <i type="int" name="NELMHF">     1</i>
   <i type="int" name="DIM">     3</i>
   <i type="int" name="ANTIRES">     0</i>
   <i name="OMEGAMAX">    -30.00000000</i>
   <i name="OMEGAMIN">    -30.00000000</i>
   <i name="OMEGATL">   -200.00000000</i>
   <i type="int" name="OMEGAGRID">   140</i>
   <i name="CSHIFT">     -0.10000000</i>
   <i type="logical" name="SELFENERGY"> F  </i>
   <i type="logical" name="LSPECTRAL"> F  </i>
   <i type="logical" name="LSPECTRALGW"> F  </i>
   <i type="logical" name="LSINGLES"> F  </i>
   <i type="logical" name="LFERMIGW"> F  </i>
   <i type="logical" name="ODDONLYGW"> F  </i>
   <i type="logical" name="EVENONLYGW"> F  </i>
   <i type="int" name="NKREDLFX">     1</i>
   <i type="int" name="NKREDLFY">     1</i>
   <i type="int" name="NKREDLFZ">     1</i>
   <i type="int" name="MAXMEM">  2800</i>
   <i type="int" name="TELESCOPE">     0</i>
   <i type="int" name="TAUPAR">     1</i>
   <i type="int" name="OMEGAPAR">    -1</i>
   <i name="LAMBDA">      1.00000000</i>
  </separator>
  <separator name="External order field" >
   <i name="OFIELD_KAPPA">      0.00000000</i>
   <v name="OFIELD_K">      0.00000000      0.00000000      0.00000000</v>
   <i name="OFIELD_Q6_NEAR">      0.00000000</i>
   <i name="OFIELD_Q6_FAR">      0.00000000</i>
   <i name="OFIELD_A">      0.00000000</i>
  </separator>
 </parameters>
 <atominfo>
  <atoms>      16 </atoms>
  <types>       3 </types>
  <array name="atoms" >
   <dimension dim="1">ion</dimension>
   <field type="string">element</field>
   <field type="int">atomtype</field>
   <set>
    <rc><c>P </c><c>   1</c></rc>
    <rc><c>P </c><c>   1</c></rc>
    <rc><c>S </c><c>   2</c></rc>
    <rc><c>S </c><c>   2</c></rc>
    <rc><c>S </c><c>   2</c></rc>
    <rc><c>S </c><c>   2</c></rc>
    <rc><c>S </c><c>   2</c></rc>
    <rc><c>S </c><c>   2</c></rc>
    <rc><c>S </c><c>   2</c></rc>
    <rc><c>S </c><c>   2</c></rc>
    <rc><c>Li</c><c>   3</c></rc>
    <rc><c>Li</c><c>   3</c></rc>
    <rc><c>Li</c><c>   3</c></rc>
    <rc><c>Li</c><c>   3</c></rc>
    <rc><c>Li</c><c>   3</c></rc>
    <rc><c>Li</c><c>   3</c></rc>
   </set>
  </array>
  <array name="atomtypes" >
   <dimension dim="1">type</dimension>
   <field type="int">atomspertype</field>
   <field type="string">element</field>
   <field>mass</field>
   <field>valence</field>
   <field type="string">pseudopotential</field>
   <set>
    <rc><c>   2</c><c>P </c><c>     30.97400000</c><c>      5.00000000</c><c>  PAW P 26Mar2009                       </c></rc>
    <rc><c>   8</c><c>S </c><c>     32.06600000</c><c>      6.00000000</c><c>  PAW S 27Mar2009                       </c></rc>
    <rc><c>   6</c><c>Li</c><c>      7.01000000</c><c>      3.00000000</c><c>  PAW Li_sv 10Sep2004                   </c></rc>
   </set>
  </array>
 </atominfo>
 <structure name="initialpos" >
  <crystal>
   <varray name="basis" >
    <v>       7.79797607       0.00000000       0.00000000 </v>
    <v>       0.00000000       6.14113706       0.00000000 </v>
    <v>       0.00000000       0.00000000       5.92886383 </v>
   </varray>
   <i name="volume">    283.92403868 </i>
   <varray name="rec_basis" >
    <v>       0.12823840       0.00000000       0.00000000 </v>
    <v>       0.00000000       0.16283629       0.00000000 </v>
    <v>       0.00000000       0.00000000       0.16866638 </v>
   </varray>
  </crystal>
  <varray name="positions" >
   <v>       0.00000000       0.77140956       0.50264493 </v>
   <v>       0.50000000       0.22859044       0.00264493 </v>
   <v>       0.20817983       0.60012918       0.39229410 </v>
   <v>       0.29182017       0.39987082       0.89229410 </v>
   <v>       0.70817983       0.39987082       0.89229410 </v>
   <v>       0.79182017       0.60012918       0.39229410 </v>
   <v>       0.00000000       0.06119827       0.33827546 </v>
   <v>       0.50000000       0.93880173       0.83827546 </v>
   <v>       0.00000000       0.82086106       0.84111600 </v>
   <v>       0.50000000       0.17913894       0.34111600 </v>
   <v>       0.00000000       0.43229912       0.08997410 </v>
   <v>       0.50000000       0.56770088       0.58997410 </v>
   <v>       0.26660455       0.76597110       0.02819397 </v>
   <v>       0.23339545       0.23402890       0.52819397 </v>
   <v>       0.76660455       0.23402890       0.52819397 </v>
   <v>       0.73339545       0.76597110       0.02819397 </v>
  </varray>
 </structure>
 <calculation>
  <scstep>
   <time name="dav">    0.20    0.21</time>
   <time name="total">    0.21    0.23</time>
   <energy>
    <i name="alphaZ">     69.50083658 </i>
    <i name="ewald">  -2739.87824047 </i>
    <i name="hartreedc">   -625.80553222 </i>
    <i name="XCdc">    182.08248366 </i>
    <i name="pawpsdc">   2494.22442938 </i>
    <i name="pawaedc">  -2541.12215007 </i>
    <i name="eentropy">      0.00000000 </i>
    <i name="bandstr">   -108.95360264 </i>
    <i name="atom">   3769.08782378 </i>
    <i name="e_fr_energy">    499.13604799 </i>
    <i name="e_wo_entrp">    499.13604799 </i>
    <i name="e_0_energy">    499.13604799 </i>
   </energy>
  </scstep>
  <scstep>
   <time name="dav">    0.20    0.20</time>
   <time name="total">    0.20    0.20</time>
   <energy>
    <i name="e_fr_energy">    -11.28832859 </i>
    <i name="e_wo_entrp">    -11.28832859 </i>
    <i name="e_0_energy">    -11.28832859 </i>
   </energy>
  </scstep>
  <scstep>
   <time name="dav">    0.22    0.22</time>
   <time name="total">    0.22    0.22</time>
   <energy>
    <i name="e_fr_energy">    -72.12160459 </i>
    <i name="e_wo_entrp">    -72.12160459 </i>
    <i name="e_0_energy">    -72.12160459 </i>
   </energy>
  </scstep>
  <scstep>
   <time name="dav">    0.27    0.27</time>
   <time name="total">    0.27    0.27</time>
   <energy>
    <i name="e_fr_energy">    -78.57473103 </i>
    <i name="e_wo_entrp">    -78.57473103 </i>
    <i name="e_0_energy">    -78.57473103 </i>
   </energy>
  </scstep>
  <scstep>
   <time name="dav">    0.24    0.24</time>
   <time name="total">    0.26    0.26</time>
   <energy>
    <i name="e_fr_energy">    -79.38306554 </i>
    <i name="e_wo_entrp">    -79.38306554 </i>
    <i name="e_0_energy">    -79.38306554 </i>
   </energy>
  </scstep>
  <scstep>
   <time name="diag">    0.06    0.06</time>
   <time name="diis">    0.09    0.09</time>
   <time name="orth">    0.01    0.01</time>
   <time name="total">    0.17    0.18</time>
   <energy>
    <i name="e_fr_energy">    -77.30232942 </i>
    <i name="e_wo_entrp">    -77.30232942 </i>
    <i name="e_0_energy">    -77.30232942 </i>
   </energy>
  </scstep>
  <scstep>
   <time name="diag">    0.05    0.05</time>
   <time name="diis">    0.09    0.09</time>
   <time name="orth">    0.01    0.01</time>
   <time name="total">    0.17    0.17</time>
   <energy>
    <i name="e_fr_energy">    -76.88782385 </i>
    <i name="e_wo_entrp">    -76.88782385 </i>
    <i name="e_0_energy">    -76.88782385 </i>
   </energy>
  </scstep>
  <scstep>
   <time name="diag">    0.05    0.05</time>
   <time name="diis">    0.11    0.11</time>
   <time name="orth">    0.01    0.01</time>
   <time name="total">    0.19    0.19</time>
   <energy>
    <i name="e_fr_energy">    -76.81466458 </i>
    <i name="e_wo_entrp">    -76.81466458 </i>
    <i name="e_0_energy">    -76.81466458 </i>
   </energy>
  </scstep>
  <scstep>
   <time name="diag">    0.05    0.05</time>
   <time name="diis">    0.11    0.11</time>
   <time name="orth">    0.01    0.01</time>
   <time name="total">    0.19    0.19</time>
   <energy>
    <i name="e_fr_energy">    -76.80849960 </i>
    <i name="e_wo_entrp">    -76.80849960 </i>
    <i name="e_0_energy">    -76.80849960 </i>
   </energy>
  </scstep>
  <scstep>
   <time name="diag">    0.05    0.05</time>
   <time name="diis">    0.13    0.13</time>
   <time name="orth">    0.01    0.01</time>
   <time name="total">    0.22    0.22</time>
   <energy>
    <i name="e_fr_energy">    -76.80890535 </i>
    <i name="e_wo_entrp">    -76.80890535 </i>
    <i name="e_0_energy">    -76.80890535 </i>
   </energy>
  </scstep>
  <scstep>
   <time name="diag">    0.06    0.06</time>
   <time name="diis">    0.12    0.12</time>
   <time name="orth">    0.01    0.01</time>
   <time name="total">    0.21    0.21</time>
   <energy>
    <i name="e_fr_energy">    -76.80931507 </i>
    <i name="e_wo_entrp">    -76.80931507 </i>
    <i name="e_0_energy">    -76.80931507 </i>
   </energy>
  </scstep>
  <scstep>
   <time name="diag">    0.05    0.05</time>
   <time name="diis">    0.12    0.12</time>
   <time name="orth">    0.01    0.01</time>
   <time name="total">    0.20    0.20</time>
   <energy>
    <i name="e_fr_energy">    -76.80949177 </i>
    <i name="e_wo_entrp">    -76.80949177 </i>
    <i name="e_0_energy">    -76.80949177 </i>
   </energy>
  </scstep>
  <scstep>
   <time name="diag">    0.05    0.05</time>
   <time name="diis">    0.08    0.08</time>
   <time name="orth">    0.01    0.01</time>
   <time name="total">    0.16    0.16</time>
   <energy>
    <i name="e_fr_energy">    -76.80959493 </i>
    <i name="e_wo_entrp">    -76.80959493 </i>
    <i name="e_0_energy">    -76.80959493 </i>
   </energy>
  </scstep>
  <scstep>
   <time name="diag">    0.05    0.05</time>
   <time name="diis">    0.10    0.10</time>
   <time name="orth">    0.01    0.01</time>
   <time name="total">    0.18    0.18</time>
   <energy>
    <i name="e_fr_energy">    -76.80964384 </i>
    <i name="e_wo_entrp">    -76.80964384 </i>
    <i name="e_0_energy">    -76.80964384 </i>
   </energy>
  </scstep>
  <scstep>
   <time name="diag">    0.05    0.05</time>
   <time name="diis">    0.09    0.09</time>
   <time name="orth">    0.01    0.01</time>
   <time name="total">    0.17    0.17</time>
   <energy>
    <i name="e_fr_energy">    -76.80967496 </i>
    <i name="e_wo_entrp">    -76.80967496 </i>
    <i name="e_0_energy">    -76.80967496 </i>
   </energy>
  </scstep>
  <scstep>
   <time name="diag">    0.05    0.05</time>
   <time name="diis">    0.07    0.07</time>
   <time name="orth">    0.01    0.01</time>
   <time name="total">    0.13    0.13</time>
   <energy>
    <i name="alphaZ">     69.50083658 </i>
    <i name="ewald">  -2739.87824047 </i>
    <i name="hartreedc">   -653.79745286 </i>
    <i name="XCdc">    185.26407076 </i>
    <i name="pawpsdc">   7422.30349691 </i>
    <i name="pawaedc">  -7472.80706563 </i>
    <i name="eentropy">      0.00000000 </i>
    <i name="bandstr">   -656.48315759 </i>
    <i name="atom">   3769.08782378 </i>
    <i name="e_fr_energy">    -76.80968852 </i>
    <i name="e_wo_entrp">    -76.80968852 </i>
    <i name="e_0_energy">    -76.80968852 </i>
   </energy>
  </scstep>
  <structure>
   <crystal>
    <varray name="basis" >
     <v>       7.79797607       0.00000000       0.00000000 </v>
     <v>       0.00000000       6.14113706       0.00000000 </v>
     <v>       0.00000000       0.00000000       5.92886383 </v>
    </varray>
    <i name="volume">    283.92403868 </i>
    <varray name="rec_basis" >
     <v>       0.12823840       0.00000000       0.00000000 </v>
     <v>       0.00000000       0.16283629       0.00000000 </v>
     <v>       0.00000000       0.00000000       0.16866638 </v>
    </varray>
   </crystal>
   <varray name="positions" >
    <v>       0.00000000       0.77140956       0.50264493 </v>
    <v>       0.50000000       0.22859044       0.00264493 </v>
    <v>       0.20817983       0.60012918       0.39229410 </v>
    <v>       0.29182017       0.39987082       0.89229410 </v>
    <v>       0.70817983       0.39987082       0.89229410 </v>
    <v>       0.79182017       0.60012918       0.39229410 </v>
    <v>       0.00000000       0.06119827       0.33827546 </v>
    <v>       0.50000000       0.93880173       0.83827546 </v>
    <v>       0.00000000       0.82086106       0.84111600 </v>
    <v>       0.50000000       0.17913894       0.34111600 </v>
    <v>       0.00000000       0.43229912       0.08997410 </v>
    <v>       0.50000000       0.56770088       0.58997410 </v>
    <v>       0.26660455       0.76597110       0.02819397 </v>
    <v>       0.23339545       0.23402890       0.52819397 </v>
    <v>       0.76660455       0.23402890       0.52819397 </v>
    <v>       0.73339545       0.76597110       0.02819397 </v>
   </varray>
  </structure>
  <varray name="forces" >
   <v>       0.00000000      -0.04860246       0.04695958 </v>
   <v>       0.00000000       0.04860246       0.04695958 </v>
   <v>      -0.00330032       0.16565130      -0.26711170 </v>
   <v>       0.00330032      -0.16565130      -0.26711170 </v>
   <v>      -0.00330032      -0.16565130      -0.26711170 </v>
   <v>       0.00330032       0.16565130      -0.26711170 </v>
   <v>       0.00000000       0.05357460       0.16867138 </v>
   <v>       0.00000000      -0.05357460       0.16867138 </v>
   <v>       0.00000000      -0.01281037       0.11847551 </v>
   <v>       0.00000000       0.01281037       0.11847551 </v>
   <v>       0.00000000       0.02987067       0.05496206 </v>
   <v>       0.00000000      -0.02987067       0.05496206 </v>
   <v>       0.07474074       0.12063402       0.07257744 </v>
   <v>      -0.07474074      -0.12063402       0.07257744 </v>
   <v>       0.07474074      -0.12063402       0.07257744 </v>
   <v>      -0.07474074       0.12063402       0.07257744 </v>
  </varray>
  <varray name="stress" >
   <v>      -7.76736125       0.00000000       0.00000000 </v>
   <v>       0.00000000      -0.65547933       0.00000000 </v>
   <v>       0.00000000       0.00000000       0.76858612 </v>
  </varray>
  <energy>
   <i name="e_fr_energy">    -76.80968852 </i>
   <i name="e_wo_entrp">    -76.80968852 </i>
   <i name="e_0_energy">      0.00000000 </i>
  </energy>
  <time name="totalsc">    3.34    3.36</time>
 </calculation>
 <calculation>
  <scstep>
   <time name="dav">    0.19    0.19</time>
   <time name="total">    0.22    0.22</time>
   <energy>
    <i name="alphaZ">     69.78627837 </i>
    <i name="ewald">  -2744.68008707 </i>
    <i name="hartreedc">   -653.88910681 </i>
    <i name="XCdc">    185.53301979 </i>
    <i name="pawpsdc">   7422.30868820 </i>
    <i name="pawaedc">  -7472.81217935 </i>
    <i name="eentropy">      0.00000000 </i>
    <i name="bandstr">   -652.16944048 </i>
    <i name="atom">   3769.08782378 </i>
    <i name="e_fr_energy">    -76.83500357 </i>
    <i name="e_wo_entrp">    -76.83500357 </i>
    <i name="e_0_energy">    -76.83500357 </i>
   </energy>
  </scstep>
  <scstep>
   <time name="diag">    0.05    0.05</time>
   <time name="diis">    0.10    0.10</time>
   <time name="orth">    0.01    0.01</time>
   <time name="total">    0.18    0.18</time>
   <energy>
    <i name="e_fr_energy">    -76.84032446 </i>
    <i name="e_wo_entrp">    -76.84032446 </i>
    <i name="e_0_energy">    -76.84032446 </i>
   </energy>
  </scstep>
  <scstep>
   <time name="diag">    0.05    0.05</time>
   <time name="diis">    0.13    0.13</time>
   <time name="orth">    0.01    0.01</time>
   <time name="total">    0.21    0.21</time>
   <energy>
    <i name="e_fr_energy">    -76.83773511 </i>
    <i name="e_wo_entrp">    -76.83773511 </i>
    <i name="e_0_energy">    -76.83773511 </i>
   </energy>
  </scstep>
  <scstep>
   <time name="diag">    0.05    0.05</time>
   <time name="diis">    0.11    0.11</time>
   <time name="orth">    0.01    0.01</time>
   <time name="total">    0.19    0.19</time>
   <energy>
    <i name="e_fr_energy">    -76.83700253 </i>
    <i name="e_wo_entrp">    -76.83700253 </i>
    <i name="e_0_energy">    -76.83700253 </i>
   </energy>
  </scstep>
  <scstep>
   <time name="diag">    0.05    0.05</time>
   <time name="diis">    0.12    0.12</time>
   <time name="orth">    0.01    0.01</time>
   <time name="total">    0.21    0.21</time>
   <energy>
    <i name="e_fr_energy">    -76.83707265 </i>
    <i name="e_wo_entrp">    -76.83707265 </i>
    <i name="e_0_energy">    -76.83707265 </i>
   </energy>
  </scstep>
  <scstep>
   <time name="diag">    0.05    0.05</time>
   <time name="diis">    0.11    0.11</time>
   <time name="orth">    0.01    0.01</time>
   <time name="total">    0.20    0.20</time>
   <energy>
    <i name="e_fr_energy">    -76.83711175 </i>
    <i name="e_wo_entrp">    -76.83711175 </i>
    <i name="e_0_energy">    -76.83711175 </i>
   </energy>
  </scstep>
  <scstep>
   <time name="diag">    0.05    0.05</time>
   <time name="diis">    0.11    0.11</time>
   <time name="orth">    0.01    0.01</time>
   <time name="total">    0.19    0.19</time>
   <energy>
    <i name="e_fr_energy">    -76.83711072 </i>
    <i name="e_wo_entrp">    -76.83711072 </i>
    <i name="e_0_energy">    -76.83711072 </i>
   </energy>
  </scstep>
  <scstep>
   <time name="diag">    0.05    0.05</time>
   <time name="diis">    0.05    0.05</time>
   <time name="orth">    0.01    0.01</time>
   <time name="total">    0.11    0.11</time>
   <energy>
    <i name="alphaZ">     69.78627837 </i>
    <i name="ewald">  -2744.68008707 </i>
    <i name="hartreedc">   -651.48851777 </i>
    <i name="XCdc">    185.35954149 </i>
    <i name="pawpsdc">   7452.35652131 </i>
    <i name="pawaedc">  -7502.82303282 </i>
    <i name="eentropy">      0.00000000 </i>
    <i name="bandstr">   -654.43563354 </i>
    <i name="atom">   3769.08782378 </i>
    <i name="e_fr_energy">    -76.83710625 </i>
    <i name="e_wo_entrp">    -76.83710625 </i>
    <i name="e_0_energy">    -76.83710625 </i>
   </energy>
  </scstep>
  <structure>
   <crystal>
    <varray name="basis" >
     <v>       7.76561236       0.00000000       0.00000000 </v>
     <v>       0.00000000       6.13898621       0.00000000 </v>
     <v>       0.00000000       0.00000000       5.93129865 </v>
    </varray>
    <i name="volume">    282.76272459 </i>
    <varray name="rec_basis" >
     <v>       0.12877285       0.00000000       0.00000000 </v>
     <v>       0.00000000       0.16289335       0.00000000 </v>
     <v>       0.00000000       0.00000000       0.16859714 </v>
    </varray>
   </crystal>
   <varray name="positions" >
    <v>       0.00000000       0.77102775       0.50302704 </v>
    <v>       0.50000000       0.22897225       0.00302704 </v>
    <v>       0.20815941       0.60143048       0.39012063 </v>
    <v>       0.29184059       0.39856952       0.89012063 </v>
    <v>       0.70815941       0.39856952       0.89012063 </v>
    <v>       0.79184059       0.60143048       0.39012063 </v>
    <v>       0.00000000       0.06161913       0.33964793 </v>
    <v>       0.50000000       0.93838087       0.83964793 </v>
    <v>       0.00000000       0.82076042       0.84208002 </v>
    <v>       0.50000000       0.17923958       0.34208002 </v>
    <v>       0.00000000       0.43253377       0.09042133 </v>
    <v>       0.50000000       0.56746623       0.59042133 </v>
    <v>       0.26706694       0.76691875       0.02878453 </v>
    <v>       0.23293306       0.23308125       0.52878453 </v>
    <v>       0.76706694       0.23308125       0.52878453 </v>
    <v>       0.73293306       0.76691875       0.02878453 </v>
   </varray>
  </structure>
  <varray name="forces" >
   <v>      -0.00000000       0.09368440       0.10152768 </v>
   <v>      -0.00000000      -0.09368440       0.10152768 </v>
   <v>       0.10482861       0.04952728      -0.20039212 </v>
   <v>      -0.10482861      -0.04952728      -0.20039212 </v>
   <v>       0.10482861      -0.04952728      -0.20039212 </v>
   <v>      -0.10482861       0.04952728      -0.20039212 </v>
   <v>      -0.00000000       0.06637888       0.14233009 </v>
   <v>      -0.00000000      -0.06637888       0.14233009 </v>
   <v>      -0.00000000      -0.03754623       0.01179807 </v>
   <v>      -0.00000000       0.03754623       0.01179807 </v>
   <v>      -0.00000000       0.02811993       0.04112775 </v>
   <v>      -0.00000000      -0.02811993       0.04112775 </v>
   <v>       0.06393436       0.09173864       0.05200033 </v>
   <v>      -0.06393436      -0.09173864       0.05200033 </v>
   <v>       0.06393436      -0.09173864       0.05200033 </v>
   <v>      -0.06393436       0.09173864       0.05200033 </v>
  </varray>
  <varray name="stress" >
   <v>      -1.39233663       0.00000000       0.00000000 </v>
   <v>       0.00000000       1.11475636       0.00000000 </v>
   <v>       0.00000000       0.00000000      -0.99088694 </v>
  </varray>
  <energy>
   <i name="e_fr_energy">    -76.83710625 </i>
   <i name="e_wo_entrp">    -76.83710625 </i>
   <i name="e_0_energy">      0.00000000 </i>
  </energy>
  <time name="totalsc">    1.69    1.70</time>
 </calculation>
 <calculation>
  <scstep>
   <time name="dav">    0.18    0.18</time>
   <time name="total">    0.20    0.21</time>
   <energy>
    <i name="alphaZ">     70.13019338 </i>
    <i name="ewald">  -2750.34555344 </i>
    <i name="hartreedc">   -651.67428857 </i>
    <i name="XCdc">    185.68249050 </i>
    <i name="pawpsdc">   7451.78748812 </i>
    <i name="pawaedc">  -7502.25392240 </i>
    <i name="eentropy">      0.00000000 </i>
    <i name="bandstr">   -649.26073983 </i>
    <i name="atom">   3769.08782378 </i>
    <i name="e_fr_energy">    -76.84650846 </i>
    <i name="e_wo_entrp">    -76.84650846 </i>
    <i name="e_0_energy">    -76.84650846 </i>
   </energy>
  </scstep>
  <scstep>
   <time name="diag">    0.05    0.05</time>
   <time name="diis">    0.10    0.10</time>
   <time name="orth">    0.01    0.01</time>
   <time name="total">    0.18    0.18</time>
   <energy>
    <i name="e_fr_energy">    -76.85370309 </i>
    <i name="e_wo_entrp">    -76.85370309 </i>
    <i name="e_0_energy">    -76.85370309 </i>
   </energy>
  </scstep>
  <scstep>
   <time name="diag">    0.05    0.05</time>
   <time name="diis">    0.13    0.13</time>
   <time name="orth">    0.01    0.01</time>
   <time name="total">    0.21    0.21</time>
   <energy>
    <i name="e_fr_energy">    -76.85034104 </i>
    <i name="e_wo_entrp">    -76.85034104 </i>
    <i name="e_0_energy">    -76.85034104 </i>
   </energy>
  </scstep>
  <scstep>
   <time name="diag">    0.05    0.05</time>
   <time name="diis">    0.11    0.11</time>
   <time name="orth">    0.01    0.01</time>
   <time name="total">    0.19    0.19</time>
   <energy>
    <i name="e_fr_energy">    -76.84933651 </i>
    <i name="e_wo_entrp">    -76.84933651 </i>
    <i name="e_0_energy">    -76.84933651 </i>
   </energy>
  </scstep>
  <scstep>
   <time name="diag">    0.05    0.05</time>
   <time name="diis">    0.12    0.12</time>
   <time name="orth">    0.01    0.01</time>
   <time name="total">    0.20    0.20</time>
   <energy>
    <i name="e_fr_energy">    -76.84945203 </i>
    <i name="e_wo_entrp">    -76.84945203 </i>
    <i name="e_0_energy">    -76.84945203 </i>
   </energy>
  </scstep>
  <scstep>
   <time name="diag">    0.05    0.05</time>
   <time name="diis">    0.12    0.12</time>
   <time name="orth">    0.01    0.01</time>
   <time name="total">    0.20    0.20</time>
   <energy>
    <i name="e_fr_energy">    -76.84951561 </i>
    <i name="e_wo_entrp">    -76.84951561 </i>
    <i name="e_0_energy">    -76.84951561 </i>
   </energy>
  </scstep>
  <scstep>
   <time name="diag">    0.05    0.05</time>
   <time name="diis">    0.11    0.11</time>
   <time name="orth">    0.01    0.01</time>
   <time name="total">    0.19    0.20</time>
   <energy>
    <i name="e_fr_energy">    -76.84952169 </i>
    <i name="e_wo_entrp">    -76.84952169 </i>
    <i name="e_0_energy">    -76.84952169 </i>
   </energy>
  </scstep>
  <scstep>
   <time name="diag">    0.05    0.05</time>
   <time name="diis">    0.06    0.06</time>
   <time name="orth">    0.01    0.01</time>
   <time name="total">    0.12    0.12</time>
   <energy>
    <i name="alphaZ">     70.13019338 </i>
    <i name="ewald">  -2750.34555344 </i>
    <i name="hartreedc">   -648.81079061 </i>
    <i name="XCdc">    185.47436219 </i>
    <i name="pawpsdc">   7487.23029553 </i>
    <i name="pawaedc">  -7537.66329186 </i>
    <i name="eentropy">      0.00000000 </i>
    <i name="bandstr">   -651.95255590 </i>
    <i name="atom">   3769.08782378 </i>
    <i name="e_fr_energy">    -76.84951692 </i>
    <i name="e_wo_entrp">    -76.84951692 </i>
    <i name="e_0_energy">    -76.84951692 </i>
   </energy>
  </scstep>
  <structure>
   <crystal>
    <varray name="basis" >
     <v>       7.72697698       0.00000000       0.00000000 </v>
     <v>       0.00000000       6.13641855       0.00000000 </v>
     <v>       0.00000000       0.00000000       5.93420531 </v>
    </varray>
    <i name="volume">    281.37607015 </i>
    <varray name="rec_basis" >
     <v>       0.12941672       0.00000000       0.00000000 </v>
     <v>       0.00000000       0.16296150       0.00000000 </v>
     <v>       0.00000000       0.00000000       0.16851456 </v>
    </varray>
   </crystal>
   <varray name="positions" >
    <v>       0.00000000       0.77057180       0.50348300 </v>
    <v>       0.50000000       0.22942820       0.00348300 </v>
    <v>       0.20813494       0.60298450       0.38752704 </v>
    <v>       0.29186506       0.39701550       0.88752704 </v>
    <v>       0.70813494       0.39701550       0.88752704 </v>
    <v>       0.79186506       0.60298450       0.38752704 </v>
    <v>       0.00000000       0.06212173       0.34128569 </v>
    <v>       0.50000000       0.93787827       0.84128569 </v>
    <v>       0.00000000       0.82064024       0.84323039 </v>
    <v>       0.50000000       0.17935976       0.34323039 </v>
    <v>       0.00000000       0.43281399       0.09095499 </v>
    <v>       0.50000000       0.56718601       0.59095499 </v>
    <v>       0.26762123       0.76805045       0.02948924 </v>
    <v>       0.23237877       0.23194955       0.52948924 </v>
    <v>       0.76762123       0.23194955       0.52948924 </v>
    <v>       0.73237877       0.76805045       0.02948924 </v>
   </varray>
  </structure>
  <varray name="forces" >
   <v>      -0.00000000       0.26298610       0.16793157 </v>
   <v>      -0.00000000      -0.26298610       0.16793157 </v>
   <v>       0.23234415      -0.08987946      -0.11865107 </v>
   <v>      -0.23234415       0.08987946      -0.11865107 </v>
   <v>       0.23234415       0.08987946      -0.11865107 </v>
   <v>      -0.23234415      -0.08987946      -0.11865107 </v>
   <v>      -0.00000000       0.07719594       0.10604505 </v>
   <v>      -0.00000000      -0.07719594       0.10604505 </v>
   <v>      -0.00000000      -0.06677535      -0.11870930 </v>
   <v>      -0.00000000       0.06677535      -0.11870930 </v>
   <v>      -0.00000000       0.02570935       0.02442821 </v>
   <v>      -0.00000000      -0.02570935       0.02442821 </v>
   <v>       0.04810946       0.05920733       0.02880331 </v>
   <v>      -0.04810946      -0.05920733       0.02880331 </v>
   <v>       0.04810946      -0.05920733       0.02880331 </v>
   <v>      -0.04810946       0.05920733       0.02880331 </v>
  </varray>
  <varray name="stress" >
   <v>       6.48893323       0.00000000       0.00000000 </v>
   <v>       0.00000000       3.43315522       0.00000000 </v>
   <v>       0.00000000       0.00000000      -2.91443456 </v>
  </varray>
  <energy>
   <i name="e_fr_energy">    -76.84951692 </i>
   <i name="e_wo_entrp">    -76.84951692 </i>
   <i name="e_0_energy">      0.00000000 </i>
  </energy>
  <time name="totalsc">    1.70    1.71</time>
 </calculation>
 <calculation>
  <scstep>
   <time name="dav">    0.18    0.18</time>
   <time name="total">    0.20    0.20</time>
   <energy>
    <i name="alphaZ">     70.14049969 </i>
    <i name="ewald">  -2753.01067822 </i>
    <i name="hartreedc">   -646.84675234 </i>
    <i name="XCdc">    185.43701759 </i>
    <i name="pawpsdc">   7486.56463076 </i>
    <i name="pawaedc">  -7536.99785435 </i>
    <i name="eentropy">      0.00000000 </i>
    <i name="bandstr">   -651.22863449 </i>
    <i name="atom">   3769.08782378 </i>
    <i name="e_fr_energy">    -76.85394758 </i>
    <i name="e_wo_entrp">    -76.85394758 </i>
    <i name="e_0_energy">    -76.85394758 </i>
   </energy>
  </scstep>
  <scstep>
   <time name="diag">    0.05    0.05</time>
   <time name="diis">    0.10    0.10</time>
   <time name="orth">    0.01    0.01</time>
   <time name="total">    0.18    0.18</time>
   <energy>
    <i name="e_fr_energy">    -76.86387256 </i>
    <i name="e_wo_entrp">    -76.86387256 </i>
    <i name="e_0_energy">    -76.86387256 </i>
   </energy>
  </scstep>
  <scstep>
   <time name="diag">    0.05    0.05</time>
   <time name="diis">    0.13    0.13</time>
   <time name="orth">    0.01    0.01</time>
   <time name="total">    0.21    0.21</time>
   <energy>
    <i name="e_fr_energy">    -76.86310737 </i>
    <i name="e_wo_entrp">    -76.86310737 </i>
    <i name="e_0_energy">    -76.86310737 </i>
   </energy>
  </scstep>
  <scstep>
   <time name="diag">    0.05    0.05</time>
   <time name="diis">    0.12    0.12</time>
   <time name="orth">    0.01    0.01</time>
   <time name="total">    0.20    0.20</time>
   <energy>
    <i name="e_fr_energy">    -76.86286247 </i>
    <i name="e_wo_entrp">    -76.86286247 </i>
    <i name="e_0_energy">    -76.86286247 </i>
   </energy>
  </scstep>
  <scstep>
   <time name="diag">    0.05    0.05</time>
   <time name="diis">    0.13    0.13</time>
   <time name="orth">    0.01    0.01</time>
   <time name="total">    0.21    0.21</time>
   <energy>
    <i name="e_fr_energy">    -76.86292722 </i>
    <i name="e_wo_entrp">    -76.86292722 </i>
    <i name="e_0_energy">    -76.86292722 </i>
   </energy>
  </scstep>
  <scstep>
   <time name="diag">    0.05    0.05</time>
   <time name="diis">    0.10    0.10</time>
   <time name="orth">    0.01    0.01</time>
   <time name="total">    0.18    0.18</time>
   <energy>
    <i name="e_fr_energy">    -76.86296367 </i>
    <i name="e_wo_entrp">    -76.86296367 </i>
    <i name="e_0_energy">    -76.86296367 </i>
   </energy>
  </scstep>
  <scstep>
   <time name="diag">    0.05    0.05</time>
   <time name="diis">    0.08    0.08</time>
   <time name="orth">    0.01    0.01</time>
   <time name="total">    0.14    0.14</time>
   <energy>
    <i name="alphaZ">     70.14049969 </i>
    <i name="ewald">  -2753.01067822 </i>
    <i name="hartreedc">   -646.63674029 </i>
    <i name="XCdc">    185.41965382 </i>
    <i name="pawpsdc">   7434.81933872 </i>
    <i name="pawaedc">  -7485.21728502 </i>
    <i name="eentropy">      0.00000000 </i>
    <i name="bandstr">   -651.46558565 </i>
    <i name="atom">   3769.08782378 </i>
    <i name="e_fr_energy">    -76.86297316 </i>
    <i name="e_wo_entrp">    -76.86297316 </i>
    <i name="e_0_energy">    -76.86297316 </i>
   </energy>
  </scstep>
  <structure>
   <crystal>
    <varray name="basis" >
     <v>       7.72423626       0.00000000       0.00000000 </v>
     <v>       0.00000000       6.14210624       0.00000000 </v>
     <v>       0.00000000       0.00000000       5.92994230 </v>
    </varray>
    <i name="volume">    281.33472528 </i>
    <varray name="rec_basis" >
     <v>       0.12946264       0.00000000       0.00000000 </v>
     <v>       0.00000000       0.16281060       0.00000000 </v>
     <v>       0.00000000       0.00000000       0.16863570 </v>
    </varray>
   </crystal>
   <varray name="positions" >
    <v>      -0.00000000       0.77163571       0.50456843 </v>
    <v>       0.50000000       0.22836429       0.00456843 </v>
    <v>       0.20903086       0.60332848       0.38561167 </v>
    <v>       0.29096914       0.39667152       0.88561167 </v>
    <v>       0.70903086       0.39667152       0.88561167 </v>
    <v>       0.79096914       0.60332848       0.38561167 </v>
    <v>      -0.00000000       0.06275611       0.34265360 </v>
    <v>       0.50000000       0.93724389       0.84265360 </v>
    <v>      -0.00000000       0.82025070       0.84320772 </v>
    <v>       0.50000000       0.17974930       0.34320772 </v>
    <v>      -0.00000000       0.43308237       0.09134918 </v>
    <v>       0.50000000       0.56691763       0.59134918 </v>
    <v>       0.26809112       0.76891465       0.02999218 </v>
    <v>       0.23190888       0.23108535       0.52999218 </v>
    <v>       0.76809112       0.23108535       0.52999218 </v>
    <v>       0.73190888       0.76891465       0.02999218 </v>
   </varray>
  </structure>
  <varray name="forces" >
   <v>       0.00000000       0.03745042      -0.07457267 </v>
   <v>       0.00000000      -0.03745042      -0.07457267 </v>
   <v>       0.05689309      -0.01551223      -0.00744902 </v>
   <v>      -0.05689309       0.01551223      -0.00744902 </v>
   <v>       0.05689309       0.01551223      -0.00744902 </v>
   <v>      -0.05689309      -0.01551223      -0.00744902 </v>
   <v>       0.00000000       0.08451226       0.06670839 </v>
   <v>       0.00000000      -0.08451226       0.06670839 </v>
   <v>       0.00000000      -0.05653063      -0.02619310 </v>
   <v>       0.00000000       0.05653063      -0.02619310 </v>
   <v>       0.00000000       0.02969607       0.02101972 </v>
   <v>       0.00000000      -0.02969607       0.02101972 </v>
   <v>       0.02807399       0.02877833       0.01396786 </v>
   <v>      -0.02807399      -0.02877833       0.01396786 </v>
   <v>       0.02807399      -0.02877833       0.01396786 </v>
   <v>      -0.02807399       0.02877833       0.01396786 </v>
  </varray>
  <varray name="stress" >
   <v>       0.84186694       0.00000000       0.00000000 </v>
   <v>       0.00000000       1.30731611       0.00000000 </v>
   <v>       0.00000000       0.00000000      -0.56045563 </v>
  </varray>
  <energy>
   <i name="e_fr_energy">    -76.86297316 </i>
   <i name="e_wo_entrp">    -76.86297316 </i>
   <i name="e_0_energy">      0.00000000 </i>
  </energy>
  <time name="totalsc">    1.53    1.53</time>
 </calculation>
 <calculation>
  <scstep>
   <time name="dav">    0.19    0.19</time>
   <time name="total">    0.21    0.22</time>
   <energy>
    <i name="alphaZ">     70.14372764 </i>
    <i name="ewald">  -2753.81156083 </i>
    <i name="hartreedc">   -646.04342787 </i>
    <i name="XCdc">    185.40874374 </i>
    <i name="pawpsdc">   7435.08809200 </i>
    <i name="pawaedc">  -7485.48507365 </i>
    <i name="eentropy">      0.00000000 </i>
    <i name="bandstr">   -651.25099057 </i>
    <i name="atom">   3769.08782378 </i>
    <i name="e_fr_energy">    -76.86266575 </i>
    <i name="e_wo_entrp">    -76.86266575 </i>
    <i name="e_0_energy">    -76.86266575 </i>
   </energy>
  </scstep>
  <scstep>
   <time name="diag">    0.05    0.05</time>
   <time name="diis">    0.10    0.10</time>
   <time name="orth">    0.01    0.01</time>
   <time name="total">    0.18    0.18</time>
   <energy>
    <i name="e_fr_energy">    -76.86360780 </i>
    <i name="e_wo_entrp">    -76.86360780 </i>
    <i name="e_0_energy">    -76.86360780 </i>
   </energy>
  </scstep>
  <scstep>
   <time name="diag">    0.05    0.05</time>
   <time name="diis">    0.13    0.13</time>
   <time name="orth">    0.01    0.01</time>
   <time name="total">    0.21    0.21</time>
   <energy>
    <i name="e_fr_energy">    -76.86359410 </i>
    <i name="e_wo_entrp">    -76.86359410 </i>
    <i name="e_0_energy">    -76.86359410 </i>
   </energy>
  </scstep>
  <scstep>
   <time name="diag">    0.05    0.05</time>
   <time name="diis">    0.12    0.12</time>
   <time name="orth">    0.01    0.01</time>
   <time name="total">    0.20    0.20</time>
   <energy>
    <i name="e_fr_energy">    -76.86358234 </i>
    <i name="e_wo_entrp">    -76.86358234 </i>
    <i name="e_0_energy">    -76.86358234 </i>
   </energy>
  </scstep>
  <scstep>
   <time name="diag">    0.05    0.05</time>
   <time name="diis">    0.05    0.05</time>
   <time name="orth">    0.01    0.01</time>
   <time name="total">    0.11    0.11</time>
   <energy>
    <i name="alphaZ">     70.14372764 </i>
    <i name="ewald">  -2753.81156083 </i>
    <i name="hartreedc">   -645.98497018 </i>
    <i name="XCdc">    185.40432612 </i>
    <i name="pawpsdc">   7421.43809169 </i>
    <i name="pawaedc">  -7471.82449592 </i>
    <i name="eentropy">      0.00000000 </i>
    <i name="bandstr">   -651.31651952 </i>
    <i name="atom">   3769.08782378 </i>
    <i name="e_fr_energy">    -76.86357720 </i>
    <i name="e_wo_entrp">    -76.86357720 </i>
    <i name="e_0_energy">    -76.86357720 </i>
   </energy>
  </scstep>
  <structure>
   <crystal>
    <varray name="basis" >
     <v>       7.72338365       0.00000000       0.00000000 </v>
     <v>       0.00000000       6.14387561       0.00000000 </v>
     <v>       0.00000000       0.00000000       5.92861613 </v>
    </varray>
    <i name="volume">    281.32177852 </i>
    <varray name="rec_basis" >
     <v>       0.12947693       0.00000000       0.00000000 </v>
     <v>       0.00000000       0.16276371       0.00000000 </v>
     <v>       0.00000000       0.00000000       0.16867343 </v>
    </varray>
   </crystal>
   <varray name="positions" >
    <v>      -0.00000000       0.77196638       0.50490634 </v>
    <v>       0.50000000       0.22803362       0.00490634 </v>
    <v>       0.20930967       0.60343539       0.38501539 </v>
    <v>       0.29069033       0.39656461       0.88501539 </v>
    <v>       0.70930967       0.39656461       0.88501539 </v>
    <v>       0.79069033       0.60343539       0.38501539 </v>
    <v>      -0.00000000       0.06295328       0.34307945 </v>
    <v>       0.50000000       0.93704672       0.84307945 </v>
    <v>      -0.00000000       0.82012962       0.84320067 </v>
    <v>       0.50000000       0.17987038       0.34320067 </v>
    <v>      -0.00000000       0.43316579       0.09147190 </v>
    <v>       0.50000000       0.56683421       0.59147190 </v>
    <v>       0.26823735       0.76918325       0.03014875 </v>
    <v>       0.23176265       0.23081675       0.53014875 </v>
    <v>       0.76823735       0.23081675       0.53014875 </v>
    <v>       0.73176265       0.76918325       0.03014875 </v>
   </varray>
  </structure>
  <varray name="forces" >
   <v>       0.00000000      -0.03191381      -0.15049547 </v>
   <v>       0.00000000       0.03191381      -0.15049547 </v>
   <v>       0.00189102       0.00683952       0.02803231 </v>
   <v>      -0.00189102      -0.00683952       0.02803231 </v>
   <v>       0.00189102      -0.00683952       0.02803231 </v>
   <v>      -0.00189102       0.00683952       0.02803231 </v>
   <v>       0.00000000       0.08470857       0.05222701 </v>
   <v>       0.00000000      -0.08470857       0.05222701 </v>
   <v>       0.00000000      -0.05390491       0.00391169 </v>
   <v>       0.00000000       0.05390491       0.00391169 </v>
   <v>       0.00000000       0.03083556       0.01953071 </v>
   <v>       0.00000000      -0.03083556       0.01953071 </v>
   <v>       0.02142307       0.01943597       0.00938071 </v>
   <v>      -0.02142307      -0.01943597       0.00938071 </v>
   <v>       0.02142307      -0.01943597       0.00938071 </v>
   <v>      -0.02142307       0.01943597       0.00938071 </v>
  </varray>
  <varray name="stress" >
   <v>      -0.82343074       0.00000000       0.00000000 </v>
   <v>       0.00000000       0.82389451       0.00000000 </v>
   <v>       0.00000000       0.00000000       0.08353337 </v>
  </varray>
  <energy>
   <i name="e_fr_energy">    -76.86357720 </i>
   <i name="e_wo_entrp">    -76.86357720 </i>
   <i name="e_0_energy">      0.00000000 </i>
  </energy>
  <time name="totalsc">    1.10    1.11</time>
 </calculation>
 <calculation>
  <scstep>
   <time name="dav">    0.18    0.18</time>
   <time name="total">    0.21    0.21</time>
   <energy>
    <i name="alphaZ">     70.14361959 </i>
    <i name="ewald">  -2754.03806502 </i>
    <i name="hartreedc">   -645.82777155 </i>
    <i name="XCdc">    185.39840783 </i>
    <i name="pawpsdc">   7419.91241788 </i>
    <i name="pawaedc">  -7470.29723748 </i>
    <i name="eentropy">      0.00000000 </i>
    <i name="bandstr">   -651.24418507 </i>
    <i name="atom">   3769.08782378 </i>
    <i name="e_fr_energy">    -76.86499004 </i>
    <i name="e_wo_entrp">    -76.86499004 </i>
    <i name="e_0_energy">    -76.86499004 </i>
   </energy>
  </scstep>
  <scstep>
   <time name="diag">    0.05    0.05</time>
   <time name="diis">    0.10    0.10</time>
   <time name="orth">    0.01    0.01</time>
   <time name="total">    0.19    0.19</time>
   <energy>
    <i name="e_fr_energy">    -76.86571354 </i>
    <i name="e_wo_entrp">    -76.86571354 </i>
    <i name="e_0_energy">    -76.86571354 </i>
   </energy>
  </scstep>
  <scstep>
   <time name="diag">    0.05    0.05</time>
   <time name="diis">    0.13    0.13</time>
   <time name="orth">    0.01    0.01</time>
   <time name="total">    0.21    0.21</time>
   <energy>
    <i name="e_fr_energy">    -76.86570411 </i>
    <i name="e_wo_entrp">    -76.86570411 </i>
    <i name="e_0_energy">    -76.86570411 </i>
   </energy>
  </scstep>
  <scstep>
   <time name="diag">    0.05    0.05</time>
   <time name="diis">    0.11    0.11</time>
   <time name="orth">    0.01    0.01</time>
   <time name="total">    0.20    0.20</time>
   <energy>
    <i name="e_fr_energy">    -76.86569756 </i>
    <i name="e_wo_entrp">    -76.86569756 </i>
    <i name="e_0_energy">    -76.86569756 </i>
   </energy>
  </scstep>
  <scstep>
   <time name="diag">    0.05    0.05</time>
   <time name="diis">    0.05    0.05</time>
   <time name="orth">    0.01    0.01</time>
   <time name="total">    0.12    0.12</time>
   <energy>
    <i name="alphaZ">     70.14361959 </i>
    <i name="ewald">  -2754.03806502 </i>
    <i name="hartreedc">   -645.76997007 </i>
    <i name="XCdc">    185.39592042 </i>
    <i name="pawpsdc">   7410.25343208 </i>
    <i name="pawaedc">  -7460.62837915 </i>
    <i name="eentropy">      0.00000000 </i>
    <i name="bandstr">   -651.31007458 </i>
    <i name="atom">   3769.08782378 </i>
    <i name="e_fr_energy">    -76.86569296 </i>
    <i name="e_wo_entrp">    -76.86569296 </i>
    <i name="e_0_energy">    -76.86569296 </i>
   </energy>
  </scstep>
  <structure>
   <crystal>
    <varray name="basis" >
     <v>       7.72062207       0.00000000       0.00000000 </v>
     <v>       0.00000000       6.14674333       0.00000000 </v>
     <v>       0.00000000       0.00000000       5.92797892 </v>
    </varray>
    <i name="volume">    281.32221189 </i>
    <varray name="rec_basis" >
     <v>       0.12952324       0.00000000       0.00000000 </v>
     <v>       0.00000000       0.16268778       0.00000000 </v>
     <v>       0.00000000       0.00000000       0.16869156 </v>
    </varray>
   </crystal>
   <varray name="positions" >
    <v>      -0.00000000       0.77200219       0.50429882 </v>
    <v>       0.50000000       0.22799781       0.00429882 </v>
    <v>       0.20948833       0.60353659       0.38480177 </v>
    <v>       0.29051167       0.39646341       0.88480177 </v>
    <v>       0.70948833       0.39646341       0.88480177 </v>
    <v>       0.79051167       0.60353659       0.38480177 </v>
    <v>      -0.00000000       0.06351644       0.34362305 </v>
    <v>       0.50000000       0.93648356       0.84362305 </v>
    <v>      -0.00000000       0.81977394       0.84321752 </v>
    <v>       0.50000000       0.18022606       0.34321752 </v>
    <v>      -0.00000000       0.43337792       0.09165280 </v>
    <v>       0.50000000       0.56662208       0.59165280 </v>
    <v>       0.26841594       0.76944924       0.03029546 </v>
    <v>       0.23158406       0.23055076       0.53029546 </v>
    <v>       0.76841594       0.23055076       0.53029546 </v>
    <v>       0.73158406       0.76944924       0.03029546 </v>
   </varray>
  </structure>
  <varray name="forces" >
   <v>       0.00000000      -0.02330985      -0.09216752 </v>
   <v>       0.00000000       0.02330985      -0.09216752 </v>
   <v>      -0.00898240       0.01057183       0.02820195 </v>
   <v>       0.00898240      -0.01057183       0.02820195 </v>
   <v>      -0.00898240      -0.01057183       0.02820195 </v>
   <v>       0.00898240       0.01057183       0.02820195 </v>
   <v>       0.00000000       0.06337338       0.03734485 </v>
   <v>       0.00000000      -0.06337338       0.03734485 </v>
   <v>       0.00000000      -0.06174209      -0.03303097 </v>
   <v>       0.00000000       0.06174209      -0.03303097 </v>
   <v>       0.00000000       0.03021861       0.01501743 </v>
   <v>       0.00000000      -0.03021861       0.01501743 </v>
   <v>       0.00953638       0.01230973       0.00821616 </v>
   <v>      -0.00953638      -0.01230973       0.00821616 </v>
   <v>       0.00953638      -0.01230973       0.00821616 </v>
   <v>      -0.00953638       0.01230973       0.00821616 </v>
  </varray>
  <varray name="stress" >
   <v>      -0.68779190       0.00000000       0.00000000 </v>
   <v>       0.00000000       0.18171364       0.00000000 </v>
   <v>       0.00000000       0.00000000      -0.36467599 </v>
  </varray>
  <energy>
   <i name="e_fr_energy">    -76.86569296 </i>
   <i name="e_wo_entrp">    -76.86569296 </i>
   <i name="e_0_energy">      0.00000000 </i>
  </energy>
  <time name="totalsc">    1.10    1.11</time>
 </calculation>
 <calculation>
  <scstep>
   <time name="dav">    0.18    0.18</time>
   <time name="total">    0.20    0.20</time>
   <energy>
    <i name="alphaZ">     70.14347666 </i>
    <i name="ewald">  -2754.49103453 </i>
    <i name="hartreedc">   -645.44884764 </i>
    <i name="XCdc">    185.38365148 </i>
    <i name="pawpsdc">   7409.94109912 </i>
    <i name="pawaedc">  -7460.31547914 </i>
    <i name="eentropy">      0.00000000 </i>
    <i name="bandstr">   -651.16491590 </i>
    <i name="atom">   3769.08782378 </i>
    <i name="e_fr_energy">    -76.86422617 </i>
    <i name="e_wo_entrp">    -76.86422617 </i>
    <i name="e_0_energy">    -76.86422617 </i>
   </energy>
  </scstep>
  <scstep>
   <time name="diag">    0.05    0.05</time>
   <time name="diis">    0.10    0.10</time>
   <time name="orth">    0.01    0.01</time>
   <time name="total">    0.18    0.19</time>
   <energy>
    <i name="e_fr_energy">    -76.86723029 </i>
    <i name="e_wo_entrp">    -76.86723029 </i>
    <i name="e_0_energy">    -76.86723029 </i>
   </energy>
  </scstep>
  <scstep>
   <time name="diag">    0.05    0.05</time>
   <time name="diis">    0.13    0.13</time>
   <time name="orth">    0.01    0.01</time>
   <time name="total">    0.21    0.21</time>
   <energy>
    <i name="e_fr_energy">    -76.86714763 </i>
    <i name="e_wo_entrp">    -76.86714763 </i>
    <i name="e_0_energy">    -76.86714763 </i>
   </energy>
  </scstep>
  <scstep>
   <time name="diag">    0.05    0.05</time>
   <time name="diis">    0.12    0.12</time>
   <time name="orth">    0.01    0.01</time>
   <time name="total">    0.20    0.20</time>
   <energy>
    <i name="e_fr_energy">    -76.86708996 </i>
    <i name="e_wo_entrp">    -76.86708996 </i>
    <i name="e_0_energy">    -76.86708996 </i>
   </energy>
  </scstep>
  <scstep>
   <time name="diag">    0.05    0.05</time>
   <time name="diis">    0.12    0.12</time>
   <time name="orth">    0.01    0.01</time>
   <time name="total">    0.20    0.20</time>
   <energy>
    <i name="e_fr_energy">    -76.86713203 </i>
    <i name="e_wo_entrp">    -76.86713203 </i>
    <i name="e_0_energy">    -76.86713203 </i>
   </energy>
  </scstep>
  <scstep>
   <time name="diag">    0.05    0.05</time>
   <time name="diis">    0.12    0.12</time>
   <time name="orth">    0.01    0.01</time>
   <time name="total">    0.20    0.20</time>
   <energy>
    <i name="e_fr_energy">    -76.86714693 </i>
    <i name="e_wo_entrp">    -76.86714693 </i>
    <i name="e_0_energy">    -76.86714693 </i>
   </energy>
  </scstep>
  <scstep>
   <time name="diag">    0.05    0.05</time>
   <time name="diis">    0.05    0.05</time>
   <time name="orth">    0.01    0.01</time>
   <time name="total">    0.12    0.12</time>
   <energy>
    <i name="alphaZ">     70.14347666 </i>
    <i name="ewald">  -2754.49103453 </i>
    <i name="hartreedc">   -645.34137500 </i>
    <i name="XCdc">    185.37919425 </i>
    <i name="pawpsdc">   7389.60357114 </i>
    <i name="pawaedc">  -7439.95613487 </i>
    <i name="eentropy">      0.00000000 </i>
    <i name="bandstr">   -651.29266613 </i>
    <i name="atom">   3769.08782378 </i>
    <i name="e_fr_energy">    -76.86714470 </i>
    <i name="e_wo_entrp">    -76.86714470 </i>
    <i name="e_0_energy">    -76.86714470 </i>
   </energy>
  </scstep>
  <structure>
   <crystal>
    <varray name="basis" >
     <v>       7.71497791       0.00000000       0.00000000 </v>
     <v>       0.00000000       6.15260444       0.00000000 </v>
     <v>       0.00000000       0.00000000       5.92667656 </v>
    </varray>
    <i name="volume">    281.32278511 </i>
    <varray name="rec_basis" >
     <v>       0.12961800       0.00000000       0.00000000 </v>
     <v>       0.00000000       0.16253280       0.00000000 </v>
     <v>       0.00000000       0.00000000       0.16872863 </v>
    </varray>
   </crystal>
   <varray name="positions" >
    <v>      -0.00000000       0.77207536       0.50305703 </v>
    <v>       0.50000000       0.22792464       0.00305703 </v>
    <v>       0.20985363       0.60374331       0.38436512 </v>
    <v>       0.29014637       0.39625669       0.88436512 </v>
    <v>       0.70985363       0.39625669       0.88436512 </v>
    <v>       0.79014637       0.60374331       0.38436512 </v>
    <v>      -0.00000000       0.06466691       0.34473419 </v>
    <v>       0.50000000       0.93533309       0.84473419 </v>
    <v>      -0.00000000       0.81904733       0.84325196 </v>
    <v>       0.50000000       0.18095267       0.34325196 </v>
    <v>      -0.00000000       0.43381127       0.09202256 </v>
    <v>       0.50000000       0.56618873       0.59202256 </v>
    <v>       0.26878108       0.76999264       0.03059533 </v>
    <v>       0.23121892       0.23000736       0.53059533 </v>
    <v>       0.76878108       0.23000736       0.53059533 </v>
    <v>       0.73121892       0.76999264       0.03059533 </v>
   </varray>
  </structure>
  <varray name="forces" >
   <v>       0.00000000      -0.00194981       0.02888781 </v>
   <v>       0.00000000       0.00194981       0.02888781 </v>
   <v>      -0.02917490       0.01084191       0.02852490 </v>
   <v>       0.02917490      -0.01084191       0.02852490 </v>
   <v>      -0.02917490      -0.01084191       0.02852490 </v>
   <v>       0.02917490       0.01084191       0.02852490 </v>
   <v>       0.00000000       0.00931014      -0.00061538 </v>
   <v>       0.00000000      -0.00931014      -0.00061538 </v>
   <v>       0.00000000      -0.07505930      -0.10939225 </v>
   <v>       0.00000000       0.07505930      -0.10939225 </v>
   <v>       0.00000000       0.03013843       0.00822840 </v>
   <v>       0.00000000      -0.03013843       0.00822840 </v>
   <v>      -0.01431699      -0.00343275       0.00792081 </v>
   <v>       0.01431699       0.00343275       0.00792081 </v>
   <v>      -0.01431699       0.00343275       0.00792081 </v>
   <v>       0.01431699      -0.00343275       0.00792081 </v>
  </varray>
  <varray name="stress" >
   <v>      -0.20441023       0.00000000       0.00000000 </v>
   <v>       0.00000000      -1.42290259       0.00000000 </v>
   <v>       0.00000000       0.00000000      -1.30567455 </v>
  </varray>
  <energy>
   <i name="e_fr_energy">    -76.86714470 </i>
   <i name="e_wo_entrp">    -76.86714470 </i>
   <i name="e_0_energy">      0.00000000 </i>
  </energy>
  <time name="totalsc">    1.51    1.52</time>
 </calculation>
 <calculation>
  <scstep>
   <time name="dav">    0.18    0.18</time>
   <time name="total">    0.20    0.20</time>
   <energy>
    <i name="alphaZ">     70.24553647 </i>
    <i name="ewald">  -2754.73712944 </i>
    <i name="hartreedc">   -646.48065183 </i>
    <i name="XCdc">    185.50038002 </i>
    <i name="pawpsdc">   7389.73351447 </i>
    <i name="pawaedc">  -7440.08538424 </i>
    <i name="eentropy">      0.00000000 </i>
    <i name="bandstr">   -650.13196632 </i>
    <i name="atom">   3769.08782378 </i>
    <i name="e_fr_energy">    -76.86787708 </i>
    <i name="e_wo_entrp">    -76.86787708 </i>
    <i name="e_0_energy">    -76.86787708 </i>
   </energy>
  </scstep>
  <scstep>
   <time name="diag">    0.05    0.05</time>
   <time name="diis">    0.10    0.10</time>
   <time name="orth">    0.01    0.01</time>
   <time name="total">    0.18    0.18</time>
   <energy>
    <i name="e_fr_energy">    -76.86869930 </i>
    <i name="e_wo_entrp">    -76.86869930 </i>
    <i name="e_0_energy">    -76.86869930 </i>
   </energy>
  </scstep>
  <scstep>
   <time name="diag">    0.05    0.05</time>
   <time name="diis">    0.13    0.13</time>
   <time name="orth">    0.01    0.01</time>
   <time name="total">    0.22    0.22</time>
   <energy>
    <i name="e_fr_energy">    -76.86853153 </i>
    <i name="e_wo_entrp">    -76.86853153 </i>
    <i name="e_0_energy">    -76.86853153 </i>
   </energy>
  </scstep>
  <scstep>
   <time name="diag">    0.05    0.05</time>
   <time name="diis">    0.11    0.11</time>
   <time name="orth">    0.01    0.01</time>
   <time name="total">    0.19    0.19</time>
   <energy>
    <i name="e_fr_energy">    -76.86850169 </i>
    <i name="e_wo_entrp">    -76.86850169 </i>
    <i name="e_0_energy">    -76.86850169 </i>
   </energy>
  </scstep>
  <scstep>
   <time name="diag">    0.05    0.05</time>
   <time name="diis">    0.05    0.05</time>
   <time name="orth">    0.01    0.01</time>
   <time name="total">    0.12    0.12</time>
   <energy>
    <i name="alphaZ">     70.24553647 </i>
    <i name="ewald">  -2754.73712944 </i>
[...]
       <r>   -9.0276    1.0000 </r>
       <r>   -4.8772    1.0000 </r>
       <r>   -4.6914    1.0000 </r>
       <r>   -2.1762    1.0000 </r>
       <r>   -2.1355    1.0000 </r>
       <r>   -2.0423    1.0000 </r>
       <r>   -1.9690    1.0000 </r>
       <r>   -1.7186    1.0000 </r>
       <r>   -1.5682    1.0000 </r>
       <r>   -0.0066    1.0000 </r>
       <r>    0.2508    1.0000 </r>
       <r>    0.3326    1.0000 </r>
       <r>    0.4983    1.0000 </r>
       <r>    0.6639    1.0000 </r>
       <r>    0.7912    1.0000 </r>
       <r>    0.9820    1.0000 </r>
       <r>    1.0792    1.0000 </r>
       <r>    1.2253    1.0000 </r>
       <r>    1.3633    1.0000 </r>
       <r>    1.7394    1.0000 </r>
       <r>    2.1421    1.0000 </r>
       <r>    2.2948    1.0000 </r>
       <r>    2.3916    1.0000 </r>
       <r>    2.5354    1.0000 </r>
       <r>    2.6018    1.0000 </r>
       <r>    5.6212    0.0000 </r>
       <r>    5.9594    0.0000 </r>
       <r>    6.5748    0.0000 </r>
       <r>    6.8276    0.0000 </r>
       <r>    6.8530    0.0000 </r>
       <r>    7.0430    0.0000 </r>
       <r>    7.1801    0.0000 </r>
       <r>    7.2977    0.0000 </r>
       <r>    8.5790    0.0000 </r>
       <r>    8.7579    0.0000 </r>
      </set>
      <set comment="kpoint 8">
       <r>  -41.3128    1.0000 </r>
       <r>  -41.3127    1.0000 </r>
       <r>  -40.6280    1.0000 </r>
       <r>  -40.6280    1.0000 </r>
       <r>  -40.6273    1.0000 </r>
       <r>  -40.6273    1.0000 </r>
       <r>  -12.2004    1.0000 </r>
       <r>  -12.1812    1.0000 </r>
       <r>   -9.3916    1.0000 </r>
       <r>   -9.3737    1.0000 </r>
       <r>   -9.2683    1.0000 </r>
       <r>   -9.2303    1.0000 </r>
       <r>   -9.0616    1.0000 </r>
       <r>   -9.0325    1.0000 </r>
       <r>   -4.7932    1.0000 </r>
       <r>   -4.7152    1.0000 </r>
       <r>   -2.1862    1.0000 </r>
       <r>   -2.1476    1.0000 </r>
       <r>   -1.9650    1.0000 </r>
       <r>   -1.8740    1.0000 </r>
       <r>   -1.7213    1.0000 </r>
       <r>   -1.6407    1.0000 </r>
       <r>   -0.0747    1.0000 </r>
       <r>    0.0532    1.0000 </r>
       <r>    0.3114    1.0000 </r>
       <r>    0.4046    1.0000 </r>
       <r>    0.6254    1.0000 </r>
       <r>    0.6799    1.0000 </r>
       <r>    1.0750    1.0000 </r>
       <r>    1.1509    1.0000 </r>
       <r>    1.3821    1.0000 </r>
       <r>    1.4452    1.0000 </r>
       <r>    1.7130    1.0000 </r>
       <r>    1.9459    1.0000 </r>
       <r>    2.2826    1.0000 </r>
       <r>    2.3229    1.0000 </r>
       <r>    2.5642    1.0000 </r>
       <r>    2.6632    1.0000 </r>
       <r>    5.7945    0.0000 </r>
       <r>    5.9594    0.0000 </r>
       <r>    6.7181    0.0000 </r>
       <r>    6.7392    0.0000 </r>
       <r>    7.0436    0.0000 </r>
       <r>    7.1795    0.0000 </r>
       <r>    7.3558    0.0000 </r>
       <r>    7.4576    0.0000 </r>
       <r>    8.6085    0.0000 </r>
       <r>    8.7778    0.0000 </r>
      </set>
     </set>
    </set>
   </array>
  </eigenvalues>
  <separator name="orbital magnetization" >
   <v name="MAGDIPOLOUT">      0.00000000      0.00000000      0.00000000</v>
  </separator>
  <dos>
   <i name="efermi">      2.87964428 </i>
   <total>
    <array>
     <dimension dim="1">gridpoints</dimension>
     <dimension dim="2">spin</dimension>
     <field>energy</field>
     <field>total</field>
     <field>integrated</field>
     <set>
      <set comment="spin 1">
       <r>   -43.8173     0.0000     0.0000 </r>
       <r>   -43.6336     0.0000     0.0000 </r>
       <r>   -43.4500     0.0000     0.0000 </r>
       <r>   -43.2663     0.0000     0.0000 </r>
       <r>   -43.0826     0.0000     0.0000 </r>
       <r>   -42.8990     0.0000     0.0000 </r>
       <r>   -42.7153     0.0000     0.0000 </r>
       <r>   -42.5317     0.0000     0.0000 </r>
       <r>   -42.3480     0.0000     0.0000 </r>
       <r>   -42.1643     0.0000     0.0000 </r>
       <r>   -41.9807     0.0000     0.0000 </r>
       <r>   -41.7970     0.0000     0.0000 </r>
       <r>   -41.6133     0.0000     0.0000 </r>
       <r>   -41.4297     0.0000     0.0000 </r>
       <r>   -41.2460     0.0000     4.0000 </r>
       <r>   -41.0623     0.0000     4.0000 </r>
       <r>   -40.8787     0.0000     4.0000 </r>
       <r>   -40.6950     0.0000     4.0000 </r>
       <r>   -40.5113     0.0000    12.0000 </r>
       <r>   -40.3277     0.0000    12.0000 </r>
       <r>   -40.1440     0.0000    12.0000 </r>
       <r>   -39.9603     0.0000    12.0000 </r>
       <r>   -39.7767     0.0000    12.0000 </r>
       <r>   -39.5930     0.0000    12.0000 </r>
       <r>   -39.4093     0.0000    12.0000 </r>
       <r>   -39.2257     0.0000    12.0000 </r>
       <r>   -39.0420     0.0000    12.0000 </r>
       <r>   -38.8583     0.0000    12.0000 </r>
       <r>   -38.6747     0.0000    12.0000 </r>
       <r>   -38.4910     0.0000    12.0000 </r>
       <r>   -38.3073     0.0000    12.0000 </r>
       <r>   -38.1237     0.0000    12.0000 </r>
       <r>   -37.9400     0.0000    12.0000 </r>
       <r>   -37.7563     0.0000    12.0000 </r>
       <r>   -37.5727     0.0000    12.0000 </r>
       <r>   -37.3890     0.0000    12.0000 </r>
       <r>   -37.2054     0.0000    12.0000 </r>
       <r>   -37.0217     0.0000    12.0000 </r>
       <r>   -36.8380     0.0000    12.0000 </r>
       <r>   -36.6544     0.0000    12.0000 </r>
       <r>   -36.4707     0.0000    12.0000 </r>
       <r>   -36.2870     0.0000    12.0000 </r>
       <r>   -36.1034     0.0000    12.0000 </r>
       <r>   -35.9197     0.0000    12.0000 </r>
       <r>   -35.7360     0.0000    12.0000 </r>
       <r>   -35.5524     0.0000    12.0000 </r>
       <r>   -35.3687     0.0000    12.0000 </r>
       <r>   -35.1850     0.0000    12.0000 </r>
       <r>   -35.0014     0.0000    12.0000 </r>
       <r>   -34.8177     0.0000    12.0000 </r>
       <r>   -34.6340     0.0000    12.0000 </r>
       <r>   -34.4504     0.0000    12.0000 </r>
       <r>   -34.2667     0.0000    12.0000 </r>
       <r>   -34.0830     0.0000    12.0000 </r>
       <r>   -33.8994     0.0000    12.0000 </r>
       <r>   -33.7157     0.0000    12.0000 </r>
       <r>   -33.5320     0.0000    12.0000 </r>
       <r>   -33.3484     0.0000    12.0000 </r>
       <r>   -33.1647     0.0000    12.0000 </r>
       <r>   -32.9810     0.0000    12.0000 </r>
       <r>   -32.7974     0.0000    12.0000 </r>
       <r>   -32.6137     0.0000    12.0000 </r>
       <r>   -32.4300     0.0000    12.0000 </r>
       <r>   -32.2464     0.0000    12.0000 </r>
       <r>   -32.0627     0.0000    12.0000 </r>
       <r>   -31.8791     0.0000    12.0000 </r>
       <r>   -31.6954     0.0000    12.0000 </r>
       <r>   -31.5117     0.0000    12.0000 </r>
       <r>   -31.3281     0.0000    12.0000 </r>
       <r>   -31.1444     0.0000    12.0000 </r>
       <r>   -30.9607     0.0000    12.0000 </r>
       <r>   -30.7771     0.0000    12.0000 </r>
       <r>   -30.5934     0.0000    12.0000 </r>
       <r>   -30.4097     0.0000    12.0000 </r>
       <r>   -30.2261     0.0000    12.0000 </r>
       <r>   -30.0424     0.0000    12.0000 </r>
       <r>   -29.8587     0.0000    12.0000 </r>
       <r>   -29.6751     0.0000    12.0000 </r>
       <r>   -29.4914     0.0000    12.0000 </r>
       <r>   -29.3077     0.0000    12.0000 </r>
       <r>   -29.1241     0.0000    12.0000 </r>
       <r>   -28.9404     0.0000    12.0000 </r>
       <r>   -28.7567     0.0000    12.0000 </r>
       <r>   -28.5731     0.0000    12.0000 </r>
       <r>   -28.3894     0.0000    12.0000 </r>
       <r>   -28.2057     0.0000    12.0000 </r>
       <r>   -28.0221     0.0000    12.0000 </r>
       <r>   -27.8384     0.0000    12.0000 </r>
       <r>   -27.6547     0.0000    12.0000 </r>
       <r>   -27.4711     0.0000    12.0000 </r>
       <r>   -27.2874     0.0000    12.0000 </r>
       <r>   -27.1037     0.0000    12.0000 </r>
       <r>   -26.9201     0.0000    12.0000 </r>
       <r>   -26.7364     0.0000    12.0000 </r>
       <r>   -26.5528     0.0000    12.0000 </r>
       <r>   -26.3691     0.0000    12.0000 </r>
       <r>   -26.1854     0.0000    12.0000 </r>
       <r>   -26.0018     0.0000    12.0000 </r>
       <r>   -25.8181     0.0000    12.0000 </r>
       <r>   -25.6344     0.0000    12.0000 </r>
       <r>   -25.4508     0.0000    12.0000 </r>
       <r>   -25.2671     0.0000    12.0000 </r>
       <r>   -25.0834     0.0000    12.0000 </r>
       <r>   -24.8998     0.0000    12.0000 </r>
       <r>   -24.7161     0.0000    12.0000 </r>
       <r>   -24.5324     0.0000    12.0000 </r>
       <r>   -24.3488     0.0000    12.0000 </r>
       <r>   -24.1651     0.0000    12.0000 </r>
       <r>   -23.9814     0.0000    12.0000 </r>
       <r>   -23.7978     0.0000    12.0000 </r>
       <r>   -23.6141     0.0000    12.0000 </r>
       <r>   -23.4304     0.0000    12.0000 </r>
       <r>   -23.2468     0.0000    12.0000 </r>
       <r>   -23.0631     0.0000    12.0000 </r>
       <r>   -22.8794     0.0000    12.0000 </r>
       <r>   -22.6958     0.0000    12.0000 </r>
       <r>   -22.5121     0.0000    12.0000 </r>
       <r>   -22.3284     0.0000    12.0000 </r>
       <r>   -22.1448     0.0000    12.0000 </r>
       <r>   -21.9611     0.0000    12.0000 </r>
       <r>   -21.7774     0.0000    12.0000 </r>
       <r>   -21.5938     0.0000    12.0000 </r>
       <r>   -21.4101     0.0000    12.0000 </r>
       <r>   -21.2265     0.0000    12.0000 </r>
       <r>   -21.0428     0.0000    12.0000 </r>
       <r>   -20.8591     0.0000    12.0000 </r>
       <r>   -20.6755     0.0000    12.0000 </r>
       <r>   -20.4918     0.0000    12.0000 </r>
       <r>   -20.3081     0.0000    12.0000 </r>
       <r>   -20.1245     0.0000    12.0000 </r>
       <r>   -19.9408     0.0000    12.0000 </r>
       <r>   -19.7571     0.0000    12.0000 </r>
       <r>   -19.5735     0.0000    12.0000 </r>
       <r>   -19.3898     0.0000    12.0000 </r>
       <r>   -19.2061     0.0000    12.0000 </r>
       <r>   -19.0225     0.0000    12.0000 </r>
       <r>   -18.8388     0.0000    12.0000 </r>
       <r>   -18.6551     0.0000    12.0000 </r>
       <r>   -18.4715     0.0000    12.0000 </r>
       <r>   -18.2878     0.0000    12.0000 </r>
       <r>   -18.1041     0.0000    12.0000 </r>
       <r>   -17.9205     0.0000    12.0000 </r>
       <r>   -17.7368     0.0000    12.0000 </r>
       <r>   -17.5531     0.0000    12.0000 </r>
       <r>   -17.3695     0.0000    12.0000 </r>
       <r>   -17.1858     0.0000    12.0000 </r>
       <r>   -17.0021     0.0000    12.0000 </r>
       <r>   -16.8185     0.0000    12.0000 </r>
       <r>   -16.6348     0.0000    12.0000 </r>
       <r>   -16.4511     0.0000    12.0000 </r>
       <r>   -16.2675     0.0000    12.0000 </r>
       <r>   -16.0838     0.0000    12.0000 </r>
       <r>   -15.9002     0.0000    12.0000 </r>
       <r>   -15.7165     0.0000    12.0000 </r>
       <r>   -15.5328     0.0000    12.0000 </r>
       <r>   -15.3492     0.0000    12.0000 </r>
       <r>   -15.1655     0.0000    12.0000 </r>
       <r>   -14.9818     0.0000    12.0000 </r>
       <r>   -14.7982     0.0000    12.0000 </r>
       <r>   -14.6145     0.0000    12.0000 </r>
       <r>   -14.4308     0.0000    12.0000 </r>
       <r>   -14.2472     0.0000    12.0000 </r>
       <r>   -14.0635     0.0000    12.0000 </r>
       <r>   -13.8798     0.0000    12.0000 </r>
       <r>   -13.6962     0.0000    12.0000 </r>
       <r>   -13.5125     0.0000    12.0000 </r>
       <r>   -13.3288     0.0000    12.0000 </r>
       <r>   -13.1452     0.0000    12.0000 </r>
       <r>   -12.9615     0.0000    12.0000 </r>
       <r>   -12.7778     0.0000    12.0000 </r>
       <r>   -12.5942     0.0000    12.0000 </r>
       <r>   -12.4105     0.0000    12.0000 </r>
       <r>   -12.2268    14.8653    13.6170 </r>
       <r>   -12.0432     0.0000    16.0000 </r>
       <r>   -11.8595     0.0000    16.0000 </r>
       <r>   -11.6758     0.0000    16.0000 </r>
       <r>   -11.4922     0.0000    16.0000 </r>
       <r>   -11.3085     0.0000    16.0000 </r>
       <r>   -11.1249     0.0000    16.0000 </r>
       <r>   -10.9412     0.0000    16.0000 </r>
       <r>   -10.7575     0.0000    16.0000 </r>
       <r>   -10.5739     0.0000    16.0000 </r>
       <r>   -10.3902     0.0000    16.0000 </r>
       <r>   -10.2065     0.0000    16.0000 </r>
       <r>   -10.0229     0.0000    16.0000 </r>
       <r>    -9.8392     0.0000    16.0000 </r>
       <r>    -9.6555     0.0000    16.0000 </r>
       <r>    -9.4719     0.0000    16.0000 </r>
       <r>    -9.2882     7.3809    19.8451 </r>
       <r>    -9.1045    11.6081    23.3414 </r>
       <r>    -8.9209     7.5067    27.1635 </r>
       <r>    -8.7372     0.0000    28.0000 </r>
       <r>    -8.5535     0.0000    28.0000 </r>
       <r>    -8.3699     0.0000    28.0000 </r>
       <r>    -8.1862     0.0000    28.0000 </r>
       <r>    -8.0025     0.0000    28.0000 </r>
       <r>    -7.8189     0.0000    28.0000 </r>
       <r>    -7.6352     0.0000    28.0000 </r>
       <r>    -7.4515     0.0000    28.0000 </r>
       <r>    -7.2679     0.0000    28.0000 </r>
       <r>    -7.0842     0.0000    28.0000 </r>
       <r>    -6.9005     0.0000    28.0000 </r>
       <r>    -6.7169     0.0000    28.0000 </r>
       <r>    -6.5332     0.0000    28.0000 </r>
       <r>    -6.3495     0.0000    28.0000 </r>
       <r>    -6.1659     0.0000    28.0000 </r>
       <r>    -5.9822     0.0000    28.0000 </r>
       <r>    -5.7986     0.0000    28.0000 </r>
       <r>    -5.6149     0.0000    28.0000 </r>
       <r>    -5.4312     0.0000    28.0000 </r>
       <r>    -5.2476     1.7901    28.1559 </r>
       <r>    -5.0639     5.6494    28.8531 </r>
       <r>    -4.8802     8.0581    29.8852 </r>
       <r>    -4.6966     8.1686    31.9312 </r>
       <r>    -4.5129     0.0000    32.0000 </r>
       <r>    -4.3292     0.0000    32.0000 </r>
       <r>    -4.1456     0.0000    32.0000 </r>
       <r>    -3.9619     0.0000    32.0000 </r>
       <r>    -3.7782     0.0000    32.0000 </r>
       <r>    -3.5946     0.0000    32.0000 </r>
       <r>    -3.4109     0.0000    32.0000 </r>
       <r>    -3.2272     0.0000    32.0000 </r>
       <r>    -3.0436     0.0000    32.0000 </r>
       <r>    -2.8599     0.0000    32.0000 </r>
       <r>    -2.6762     0.0000    32.0000 </r>
       <r>    -2.4926     0.0000    32.0000 </r>
       <r>    -2.3089    13.9683    33.3963 </r>
       <r>    -2.1252    17.5642    36.4465 </r>
       <r>    -1.9416     9.0090    39.3108 </r>
       <r>    -1.7579    19.2996    41.4702 </r>
       <r>    -1.5742     2.1559    43.9567 </r>
       <r>    -1.3906     0.0000    44.0000 </r>
       <r>    -1.2069     0.0000    44.0000 </r>
       <r>    -1.0232     0.0000    44.0000 </r>
       <r>    -0.8396     0.0000    44.0000 </r>
       <r>    -0.6559     0.0000    44.0000 </r>
       <r>    -0.4723     0.0000    44.0000 </r>
       <r>    -0.2886     0.0000    44.0000 </r>
       <r>    -0.1049     0.0000    44.0000 </r>
       <r>     0.0787    16.7333    46.8655 </r>
       <r>     0.2624     7.5216    48.3605 </r>
       <r>     0.4461    13.9211    50.5024 </r>
       <r>     0.6297    13.1199    52.7055 </r>
       <r>     0.8134     8.3956    55.0956 </r>
       <r>     0.9971     7.1231    56.0798 </r>
       <r>     1.1807    10.8961    58.3397 </r>
       <r>     1.3644     7.8312    60.0473 </r>
       <r>     1.5481    12.5733    61.6087 </r>
       <r>     1.7317     9.0931    64.0044 </r>
       <r>     1.9154     3.4171    66.1771 </r>
       <r>     2.0991     7.8091    68.2538 </r>
       <r>     2.2827    14.8335    70.5684 </r>
       <r>     2.4664     0.0000    72.0000 </r>
       <r>     2.6501    11.8456    74.5196 </r>
       <r>     2.8337     0.0000    76.0000 </r>
       <r>     3.0174     0.0000    76.0000 </r>
       <r>     3.2011     0.0000    76.0000 </r>
       <r>     3.3847     0.0000    76.0000 </r>
       <r>     3.5684     0.0000    76.0000 </r>
       <r>     3.7521     0.0000    76.0000 </r>
       <r>     3.9357     0.0000    76.0000 </r>
       <r>     4.1194     0.0000    76.0000 </r>
       <r>     4.3031     0.0000    76.0000 </r>
       <r>     4.4867     0.0000    76.0000 </r>
       <r>     4.6704     0.0000    76.0000 </r>
       <r>     4.8540     0.0000    76.0000 </r>
       <r>     5.0377     0.0000    76.0000 </r>
       <r>     5.2214     0.0000    76.0000 </r>
       <r>     5.4050     0.0000    76.0000 </r>
       <r>     5.5887     2.4656    76.2114 </r>
       <r>     5.7724     4.8768    77.1464 </r>
       <r>     5.9560     6.5271    78.3586 </r>
       <r>     6.1397     4.9794    79.3744 </r>
       <r>     6.3234     0.0000    80.0000 </r>
       <r>     6.5070     4.1955    80.1466 </r>
       <r>     6.6907    14.1959    81.8441 </r>
       <r>     6.8744     4.4695    83.9601 </r>
       <r>     7.0580    10.4802    84.9330 </r>
       <r>     7.2417    12.2844    87.3018 </r>
       <r>     7.4254    10.6171    89.2211 </r>
       <r>     7.6090    38.9416    91.2555 </r>
       <r>     7.7927     0.0000    92.0000 </r>
       <r>     7.9764     0.0000    92.0000 </r>
       <r>     8.1600     0.0000    92.0000 </r>
       <r>     8.3437     1.7461    92.1441 </r>
       <r>     8.5274     5.5091    92.8740 </r>
       <r>     8.7110    15.6093    94.4690 </r>
       <r>     8.8947     0.0000    96.0000 </r>
       <r>     9.0784     0.0000    96.0000 </r>
       <r>     9.2620     0.0000    96.0000 </r>
       <r>     9.4457     0.0000    96.0000 </r>
       <r>     9.6294     0.0000    96.0000 </r>
       <r>     9.8130     0.0000    96.0000 </r>
       <r>     9.9967     0.0000    96.0000 </r>
       <r>    10.1803     0.0000    96.0000 </r>
       <r>    10.3640     0.0000    96.0000 </r>
       <r>    10.5477     0.0000    96.0000 </r>
       <r>    10.7313     0.0000    96.0000 </r>
       <r>    10.9150     0.0000    96.0000 </r>
       <r>    11.0987     0.0000    96.0000 </r>
       <r>    11.2823     0.0000    96.0000 </r>
      </set>
     </set>
    </array>
   </total>
  </dos>
 </calculation>
 <structure name="finalpos" >
  <crystal>
   <varray name="basis" >
    <v>       7.70975908       0.00000000       0.00000000 </v>
    <v>       0.00000000       6.14952286       0.00000000 </v>
    <v>       0.00000000       0.00000000       5.91943198 </v>
   </varray>
   <i name="volume">    280.64820062 </i>
   <varray name="rec_basis" >
    <v>       0.12970574       0.00000000       0.00000000 </v>
    <v>       0.00000000       0.16261424       0.00000000 </v>
    <v>       0.00000000       0.00000000       0.16893513 </v>
   </varray>
  </crystal>
  <varray name="positions" >
   <v>      -0.00000000       0.77210263       0.50255547 </v>
   <v>       0.50000000       0.22789737       0.00255547 </v>
   <v>       0.20982604       0.60401871       0.38442010 </v>
   <v>       0.29017396       0.39598129       0.88442010 </v>
   <v>       0.70982604       0.39598129       0.88442010 </v>
   <v>       0.79017396       0.60401871       0.38442010 </v>
   <v>      -0.00000000       0.06558056       0.34550082 </v>
   <v>       0.50000000       0.93441944       0.84550082 </v>
   <v>      -0.00000000       0.81763106       0.84189807 </v>
   <v>       0.50000000       0.18236894       0.34189807 </v>
   <v>      -0.00000000       0.43447850       0.09238390 </v>
   <v>       0.50000000       0.56552150       0.59238390 </v>
   <v>       0.26889714       0.77032919       0.03090409 </v>
   <v>       0.23110286       0.22967081       0.53090409 </v>
   <v>       0.76889714       0.22967081       0.53090409 </v>
   <v>       0.73110286       0.77032919       0.03090409 </v>
  </varray>
 </structure>
</modeling>
