unknown system                          
           1
     7.797976    0.000000    0.000000
     0.000000    6.141137    0.000000
     0.000000    0.000000    5.928864
   P    S    Li
   2   8   6
Direct configuration=     1
   0.00000000  0.77140956  0.50264493
   0.50000000  0.22859044  0.00264493
   0.20817983  0.60012918  0.39229410
   0.29182017  0.39987082  0.89229410
   0.70817983  0.39987082  0.89229410
   0.79182017  0.60012918  0.39229410
   0.00000000  0.06119827  0.33827546
   0.50000000  0.93880173  0.83827546
   0.00000000  0.82086106  0.84111600
   0.50000000  0.17913894  0.34111600
   0.00000000  0.43229912  0.08997410
   0.50000000  0.56770088  0.58997410
   0.26660455  0.76597110  0.02819397
   0.23339545  0.23402890  0.52819397
   0.76660455  0.23402890  0.52819397
   0.73339545  0.76597110  0.02819397
unknown system                          
           1
     7.765612    0.000000    0.000000
     0.000000    6.138986    0.000000
     0.000000    0.000000    5.931299
   P    S    Li
   2   8   6
Direct configuration=     2
   0.00000000  0.77102775  0.50302704
   0.50000000  0.22897225  0.00302704
   0.20815941  0.60143048  0.39012063
   0.29184059  0.39856952  0.89012063
   0.70815941  0.39856952  0.89012063
   0.79184059  0.60143048  0.39012063
   0.00000000  0.06161913  0.33964793
   0.50000000  0.93838087  0.83964793
   0.00000000  0.82076042  0.84208002
   0.50000000  0.17923958  0.34208002
   0.00000000  0.43253377  0.09042133
   0.50000000  0.56746623  0.59042133
   0.26706694  0.76691875  0.02878453
   0.23293306  0.23308125  0.52878453
   0.76706694  0.23308125  0.52878453
   0.73293306  0.76691875  0.02878453
unknown system                          
           1
     7.726977    0.000000    0.000000
     0.000000    6.136419    0.000000
     0.000000    0.000000    5.934205
   P    S    Li
   2   8   6
Direct configuration=     3
   0.00000000  0.77057180  0.50348300
   0.50000000  0.22942820  0.00348300
   0.20813494  0.60298450  0.38752704
   0.29186506  0.39701550  0.88752704
   0.70813494  0.39701550  0.88752704
   0.79186506  0.60298450  0.38752704
   0.00000000  0.06212173  0.34128569
   0.50000000  0.93787827  0.84128569
   0.00000000  0.82064024  0.84323039
   0.50000000  0.17935976  0.34323039
   0.00000000  0.43281399  0.09095499
   0.50000000  0.56718601  0.59095499
   0.26762123  0.76805045  0.02948924
   0.23237877  0.23194955  0.52948924
   0.76762123  0.23194955  0.52948924
   0.73237877  0.76805045  0.02948924
unknown system                          
           1
     7.724236    0.000000    0.000000
     0.000000    6.142106    0.000000
     0.000000    0.000000    5.929942
   P    S    Li
   2   8   6
Direct configuration=     4
  -0.00000000  0.77163571  0.50456843
   0.50000000  0.22836429  0.00456843
   0.20903086  0.60332848  0.38561167
   0.29096914  0.39667152  0.88561167
   0.70903086  0.39667152  0.88561167
   0.79096914  0.60332848  0.38561167
  -0.00000000  0.06275611  0.34265360
   0.50000000  0.93724389  0.84265360
  -0.00000000  0.82025070  0.84320772
   0.50000000  0.17974930  0.34320772
  -0.00000000  0.43308237  0.09134918
   0.50000000  0.56691763  0.59134918
   0.26809112  0.76891465  0.02999218
   0.23190888  0.23108535  0.52999218
   0.76809112  0.23108535  0.52999218
   0.73190888  0.76891465  0.02999218
unknown system                          
           1
     7.723384    0.000000    0.000000
     0.000000    6.143876    0.000000
     0.000000    0.000000    5.928616
   P    S    Li
   2   8   6
Direct configuration=     5
  -0.00000000  0.77196638  0.50490634
   0.50000000  0.22803362  0.00490634
   0.20930967  0.60343539  0.38501539
   0.29069033  0.39656461  0.88501539
   0.70930967  0.39656461  0.88501539
   0.79069033  0.60343539  0.38501539
  -0.00000000  0.06295328  0.34307945
   0.50000000  0.93704672  0.84307945
  -0.00000000  0.82012962  0.84320067
   0.50000000  0.17987038  0.34320067
  -0.00000000  0.43316579  0.09147190
   0.50000000  0.56683421  0.59147190
   0.26823735  0.76918325  0.03014875
   0.23176265  0.23081675  0.53014875
   0.76823735  0.23081675  0.53014875
   0.73176265  0.76918325  0.03014875
unknown system                          
           1
     7.720622    0.000000    0.000000
     0.000000    6.146743    0.000000
     0.000000    0.000000    5.927979
   P    S    Li
   2   8   6
Direct configuration=     6
  -0.00000000  0.77200219  0.50429882
   0.50000000  0.22799781  0.00429882
   0.20948833  0.60353659  0.38480177
   0.29051167  0.39646341  0.88480177
   0.70948833  0.39646341  0.88480177
   0.79051167  0.60353659  0.38480177
  -0.00000000  0.06351644  0.34362305
   0.50000000  0.93648356  0.84362305
  -0.00000000  0.81977394  0.84321752
   0.50000000  0.18022606  0.34321752
  -0.00000000  0.43337792  0.09165280
   0.50000000  0.56662208  0.59165280
   0.26841594  0.76944924  0.03029546
   0.23158406  0.23055076  0.53029546
   0.76841594  0.23055076  0.53029546
   0.73158406  0.76944924  0.03029546
unknown system                          
           1
     7.714978    0.000000    0.000000
     0.000000    6.152604    0.000000
     0.000000    0.000000    5.926677
   P    S    Li
   2   8   6
Direct configuration=     7
  -0.00000000  0.77207536  0.50305703
   0.50000000  0.22792464  0.00305703
   0.20985363  0.60374331  0.38436512
   0.29014637  0.39625669  0.88436512
   0.70985363  0.39625669  0.88436512
   0.79014637  0.60374331  0.38436512
  -0.00000000  0.06466691  0.34473419
   0.50000000  0.93533309  0.84473419
  -0.00000000  0.81904733  0.84325196
   0.50000000  0.18095267  0.34325196
  -0.00000000  0.43381127  0.09202256
   0.50000000  0.56618873  0.59202256
   0.26878108  0.76999264  0.03059533
   0.23121892  0.23000736  0.53059533
   0.76878108  0.23000736  0.53059533
   0.73121892  0.76999264  0.03059533
unknown system                          
           1
     7.711817    0.000000    0.000000
     0.000000    6.150738    0.000000
     0.000000    0.000000    5.922288
   P    S    Li
   2   8   6
Direct configuration=     8
  -0.00000000  0.77209188  0.50275331
   0.50000000  0.22790812  0.00275331
   0.20983692  0.60391011  0.38439841
   0.29016308  0.39608989  0.88439841
   0.70983692  0.39608989  0.88439841
   0.79016308  0.60391011  0.38439841
  -0.00000000  0.06522027  0.34519843
   0.50000000  0.93477973  0.84519843
  -0.00000000  0.81818956  0.84243211
   0.50000000  0.18181044  0.34243211
  -0.00000000  0.43421538  0.09224137
   0.50000000  0.56578462  0.59224137
   0.26885137  0.77019647  0.03078230
   0.23114863  0.22980353  0.53078230
   0.76885137  0.22980353  0.53078230
   0.73114863  0.77019647  0.03078230
unknown system                          
           1
     7.709759    0.000000    0.000000
     0.000000    6.149523    0.000000
     0.000000    0.000000    5.919432
   P    S    Li
   2   8   6
Direct configuration=     9
  -0.00000000  0.77210263  0.50255547
   0.50000000  0.22789737  0.00255547
   0.20982604  0.60401871  0.38442010
   0.29017396  0.39598129  0.88442010
   0.70982604  0.39598129  0.88442010
   0.79017396  0.60401871  0.38442010
  -0.00000000  0.06558056  0.34550082
   0.50000000  0.93441944  0.84550082
  -0.00000000  0.81763106  0.84189807
   0.50000000  0.18236894  0.34189807
  -0.00000000  0.43447850  0.09238390
   0.50000000  0.56552150  0.59238390
   0.26889714  0.77032919  0.03090409
   0.23110286  0.22967081  0.53090409
   0.76889714  0.22967081  0.53090409
   0.73110286  0.77032919  0.03090409
