  16  16   0   0
  0.1803581E+02  0.7580224E-09  0.6333473E-09  0.6010791E-09  0.5000000E-15
  1.000000000000000E-004
  CAR 
 unknown system                          
     11.19262472    -43.74473337  301      2.26530403      1.00000000
    -43.745  0.0000E+00  0.0000E+00
    -43.562  0.0000E+00  0.0000E+00
    -43.378  0.0000E+00  0.0000E+00
    -43.195  0.0000E+00  0.0000E+00
    -43.012  0.0000E+00  0.0000E+00
    -42.829  0.0000E+00  0.0000E+00
    -42.646  0.0000E+00  0.0000E+00
    -42.463  0.0000E+00  0.0000E+00
    -42.280  0.0000E+00  0.0000E+00
    -42.097  0.0000E+00  0.0000E+00
    -41.913  0.0000E+00  0.0000E+00
    -41.730  0.0000E+00  0.0000E+00
    -41.547  0.0000E+00  0.0000E+00
    -41.364  0.0000E+00  0.0000E+00
    -41.181  0.0000E+00  0.4000E+01
    -40.998  0.0000E+00  0.4000E+01
    -40.815  0.0000E+00  0.4000E+01
    -40.632  0.0000E+00  0.1200E+02
    -40.448  0.0000E+00  0.1200E+02
    -40.265  0.0000E+00  0.1200E+02
    -40.082  0.0000E+00  0.1200E+02
    -39.899  0.0000E+00  0.1200E+02
    -39.716  0.0000E+00  0.1200E+02
    -39.533  0.0000E+00  0.1200E+02
    -39.350  0.0000E+00  0.1200E+02
    -39.167  0.0000E+00  0.1200E+02
    -38.983  0.0000E+00  0.1200E+02
    -38.800  0.0000E+00  0.1200E+02
    -38.617  0.0000E+00  0.1200E+02
    -38.434  0.0000E+00  0.1200E+02
    -38.251  0.0000E+00  0.1200E+02
    -38.068  0.0000E+00  0.1200E+02
    -37.885  0.0000E+00  0.1200E+02
    -37.702  0.0000E+00  0.1200E+02
    -37.518  0.0000E+00  0.1200E+02
    -37.335  0.0000E+00  0.1200E+02
    -37.152  0.0000E+00  0.1200E+02
    -36.969  0.0000E+00  0.1200E+02
    -36.786  0.0000E+00  0.1200E+02
    -36.603  0.0000E+00  0.1200E+02
    -36.420  0.0000E+00  0.1200E+02
    -36.237  0.0000E+00  0.1200E+02
    -36.054  0.0000E+00  0.1200E+02
    -35.870  0.0000E+00  0.1200E+02
    -35.687  0.0000E+00  0.1200E+02
    -35.504  0.0000E+00  0.1200E+02
    -35.321  0.0000E+00  0.1200E+02
    -35.138  0.0000E+00  0.1200E+02
    -34.955  0.0000E+00  0.1200E+02
    -34.772  0.0000E+00  0.1200E+02
    -34.589  0.0000E+00  0.1200E+02
    -34.405  0.0000E+00  0.1200E+02
    -34.222  0.0000E+00  0.1200E+02
    -34.039  0.0000E+00  0.1200E+02
    -33.856  0.0000E+00  0.1200E+02
    -33.673  0.0000E+00  0.1200E+02
    -33.490  0.0000E+00  0.1200E+02
    -33.307  0.0000E+00  0.1200E+02
    -33.124  0.0000E+00  0.1200E+02
    -32.940  0.0000E+00  0.1200E+02
    -32.757  0.0000E+00  0.1200E+02
    -32.574  0.0000E+00  0.1200E+02
    -32.391  0.0000E+00  0.1200E+02
    -32.208  0.0000E+00  0.1200E+02
    -32.025  0.0000E+00  0.1200E+02
    -31.842  0.0000E+00  0.1200E+02
    -31.659  0.0000E+00  0.1200E+02
    -31.475  0.0000E+00  0.1200E+02
    -31.292  0.0000E+00  0.1200E+02
    -31.109  0.0000E+00  0.1200E+02
    -30.926  0.0000E+00  0.1200E+02
    -30.743  0.0000E+00  0.1200E+02
    -30.560  0.0000E+00  0.1200E+02
    -30.377  0.0000E+00  0.1200E+02
    -30.194  0.0000E+00  0.1200E+02
    -30.010  0.0000E+00  0.1200E+02
    -29.827  0.0000E+00  0.1200E+02
    -29.644  0.0000E+00  0.1200E+02
    -29.461  0.0000E+00  0.1200E+02
    -29.278  0.0000E+00  0.1200E+02
    -29.095  0.0000E+00  0.1200E+02
    -28.912  0.0000E+00  0.1200E+02
    -28.729  0.0000E+00  0.1200E+02
    -28.545  0.0000E+00  0.1200E+02
    -28.362  0.0000E+00  0.1200E+02
    -28.179  0.0000E+00  0.1200E+02
    -27.996  0.0000E+00  0.1200E+02
    -27.813  0.0000E+00  0.1200E+02
    -27.630  0.0000E+00  0.1200E+02
    -27.447  0.0000E+00  0.1200E+02
    -27.264  0.0000E+00  0.1200E+02
    -27.080  0.0000E+00  0.1200E+02
    -26.897  0.0000E+00  0.1200E+02
    -26.714  0.0000E+00  0.1200E+02
    -26.531  0.0000E+00  0.1200E+02
    -26.348  0.0000E+00  0.1200E+02
    -26.165  0.0000E+00  0.1200E+02
    -25.982  0.0000E+00  0.1200E+02
    -25.799  0.0000E+00  0.1200E+02
    -25.615  0.0000E+00  0.1200E+02
    -25.432  0.0000E+00  0.1200E+02
    -25.249  0.0000E+00  0.1200E+02
    -25.066  0.0000E+00  0.1200E+02
    -24.883  0.0000E+00  0.1200E+02
    -24.700  0.0000E+00  0.1200E+02
    -24.517  0.0000E+00  0.1200E+02
    -24.334  0.0000E+00  0.1200E+02
    -24.150  0.0000E+00  0.1200E+02
    -23.967  0.0000E+00  0.1200E+02
    -23.784  0.0000E+00  0.1200E+02
    -23.601  0.0000E+00  0.1200E+02
    -23.418  0.0000E+00  0.1200E+02
    -23.235  0.0000E+00  0.1200E+02
    -23.052  0.0000E+00  0.1200E+02
    -22.869  0.0000E+00  0.1200E+02
    -22.685  0.0000E+00  0.1200E+02
    -22.502  0.0000E+00  0.1200E+02
    -22.319  0.0000E+00  0.1200E+02
    -22.136  0.0000E+00  0.1200E+02
    -21.953  0.0000E+00  0.1200E+02
    -21.770  0.0000E+00  0.1200E+02
    -21.587  0.0000E+00  0.1200E+02
    -21.404  0.0000E+00  0.1200E+02
    -21.220  0.0000E+00  0.1200E+02
    -21.037  0.0000E+00  0.1200E+02
    -20.854  0.0000E+00  0.1200E+02
    -20.671  0.0000E+00  0.1200E+02
    -20.488  0.0000E+00  0.1200E+02
    -20.305  0.0000E+00  0.1200E+02
    -20.122  0.0000E+00  0.1200E+02
    -19.939  0.0000E+00  0.1200E+02
    -19.755  0.0000E+00  0.1200E+02
    -19.572  0.0000E+00  0.1200E+02
    -19.389  0.0000E+00  0.1200E+02
    -19.206  0.0000E+00  0.1200E+02
    -19.023  0.0000E+00  0.1200E+02
    -18.840  0.0000E+00  0.1200E+02
    -18.657  0.0000E+00  0.1200E+02
    -18.474  0.0000E+00  0.1200E+02
    -18.290  0.0000E+00  0.1200E+02
    -18.107  0.0000E+00  0.1200E+02
    -17.924  0.0000E+00  0.1200E+02
    -17.741  0.0000E+00  0.1200E+02
    -17.558  0.0000E+00  0.1200E+02
    -17.375  0.0000E+00  0.1200E+02
    -17.192  0.0000E+00  0.1200E+02
    -17.009  0.0000E+00  0.1200E+02
    -16.825  0.0000E+00  0.1200E+02
    -16.642  0.0000E+00  0.1200E+02
    -16.459  0.0000E+00  0.1200E+02
    -16.276  0.0000E+00  0.1200E+02
    -16.093  0.0000E+00  0.1200E+02
    -15.910  0.0000E+00  0.1200E+02
    -15.727  0.0000E+00  0.1200E+02
    -15.544  0.0000E+00  0.1200E+02
    -15.360  0.0000E+00  0.1200E+02
    -15.177  0.0000E+00  0.1200E+02
    -14.994  0.0000E+00  0.1200E+02
    -14.811  0.0000E+00  0.1200E+02
    -14.628  0.0000E+00  0.1200E+02
    -14.445  0.0000E+00  0.1200E+02
    -14.262  0.0000E+00  0.1200E+02
    -14.079  0.0000E+00  0.1200E+02
    -13.895  0.0000E+00  0.1200E+02
    -13.712  0.0000E+00  0.1200E+02
    -13.529  0.0000E+00  0.1200E+02
    -13.346  0.0000E+00  0.1200E+02
    -13.163  0.0000E+00  0.1200E+02
    -12.980  0.0000E+00  0.1200E+02
    -12.797  0.0000E+00  0.1200E+02
    -12.614  0.2350E+01  0.1202E+02
    -12.430  0.0000E+00  0.1600E+02
    -12.247  0.0000E+00  0.1600E+02
    -12.064  0.0000E+00  0.1600E+02
    -11.881  0.0000E+00  0.1600E+02
    -11.698  0.0000E+00  0.1600E+02
    -11.515  0.0000E+00  0.1600E+02
    -11.332  0.0000E+00  0.1600E+02
    -11.149  0.0000E+00  0.1600E+02
    -10.965  0.0000E+00  0.1600E+02
    -10.782  0.0000E+00  0.1600E+02
    -10.599  0.0000E+00  0.1600E+02
    -10.416  0.0000E+00  0.1600E+02
    -10.233  0.0000E+00  0.1600E+02
    -10.050  0.0000E+00  0.1600E+02
     -9.867  0.0000E+00  0.1600E+02
     -9.684  0.0000E+00  0.1600E+02
     -9.500  0.2320E+02  0.2078E+02
     -9.317  0.6418E+01  0.2794E+02
     -9.134  0.0000E+00  0.2800E+02
     -8.951  0.0000E+00  0.2800E+02
     -8.768  0.0000E+00  0.2800E+02
     -8.585  0.0000E+00  0.2800E+02
     -8.402  0.0000E+00  0.2800E+02
     -8.219  0.0000E+00  0.2800E+02
     -8.035  0.0000E+00  0.2800E+02
     -7.852  0.0000E+00  0.2800E+02
     -7.669  0.0000E+00  0.2800E+02
     -7.486  0.0000E+00  0.2800E+02
     -7.303  0.0000E+00  0.2800E+02
     -7.120  0.0000E+00  0.2800E+02
     -6.937  0.0000E+00  0.2800E+02
     -6.754  0.0000E+00  0.2800E+02
     -6.570  0.0000E+00  0.2800E+02
     -6.387  0.0000E+00  0.2800E+02
     -6.204  0.0000E+00  0.2800E+02
     -6.021  0.0000E+00  0.2800E+02
     -5.838  0.0000E+00  0.2800E+02
     -5.655  0.4208E-02  0.2800E+02
     -5.472  0.2200E+01  0.2813E+02
     -5.289  0.8933E+01  0.2954E+02
     -5.105  0.1403E+01  0.3199E+02
     -4.922  0.0000E+00  0.3200E+02
     -4.739  0.0000E+00  0.3200E+02
     -4.556  0.0000E+00  0.3200E+02
     -4.373  0.0000E+00  0.3200E+02
     -4.190  0.0000E+00  0.3200E+02
     -4.007  0.0000E+00  0.3200E+02
     -3.824  0.0000E+00  0.3200E+02
     -3.640  0.0000E+00  0.3200E+02
     -3.457  0.0000E+00  0.3200E+02
     -3.274  0.0000E+00  0.3200E+02
     -3.091  0.0000E+00  0.3200E+02
     -2.908  0.0000E+00  0.3200E+02
     -2.725  0.0000E+00  0.3200E+02
     -2.542  0.9382E+01  0.3303E+02
     -2.359  0.1386E+02  0.3611E+02
     -2.175  0.2000E+02  0.3988E+02
     -1.992  0.0000E+00  0.4400E+02
     -1.809  0.0000E+00  0.4400E+02
     -1.626  0.0000E+00  0.4400E+02
     -1.443  0.0000E+00  0.4400E+02
     -1.260  0.0000E+00  0.4400E+02
     -1.077  0.0000E+00  0.4400E+02
     -0.894  0.0000E+00  0.4400E+02
     -0.710  0.0000E+00  0.4400E+02
     -0.527  0.0000E+00  0.4400E+02
     -0.344  0.0000E+00  0.4400E+02
     -0.161  0.2434E+02  0.4599E+02
      0.022  0.1394E+02  0.4917E+02
      0.205  0.6744E+01  0.5140E+02
      0.388  0.1130E+02  0.5276E+02
      0.571  0.1340E+02  0.5417E+02
      0.755  0.3194E+01  0.5604E+02
      0.938  0.0000E+00  0.5800E+02
      1.121  0.1374E+02  0.6096E+02
      1.304  0.7348E+01  0.6326E+02
      1.487  0.6792E+01  0.6449E+02
      1.670  0.1127E+02  0.6786E+02
      1.853  0.1670E+02  0.7088E+02
      2.036  0.1315E+02  0.7461E+02
      2.220  0.0000E+00  0.7600E+02
      2.403  0.0000E+00  0.7600E+02
      2.586  0.0000E+00  0.7600E+02
      2.769  0.0000E+00  0.7600E+02
      2.952  0.0000E+00  0.7600E+02
      3.135  0.0000E+00  0.7600E+02
      3.318  0.0000E+00  0.7600E+02
      3.501  0.0000E+00  0.7600E+02
      3.685  0.0000E+00  0.7600E+02
      3.868  0.0000E+00  0.7600E+02
      4.051  0.0000E+00  0.7600E+02
      4.234  0.0000E+00  0.7600E+02
      4.417  0.0000E+00  0.7600E+02
      4.600  0.0000E+00  0.7600E+02
      4.783  0.0000E+00  0.7600E+02
      4.966  0.0000E+00  0.7600E+02
      5.150  0.2951E+01  0.7627E+02
      5.333  0.5065E+01  0.7696E+02
      5.516  0.4858E+01  0.7794E+02
      5.699  0.4647E+01  0.7887E+02
      5.882  0.3249E+01  0.7962E+02
      6.065  0.7424E+00  0.8001E+02
      6.248  0.2408E+01  0.8027E+02
      6.431  0.1198E+02  0.8148E+02
      6.615  0.1324E+01  0.8409E+02
      6.798  0.1533E+02  0.8602E+02
      6.981  0.6087E+01  0.8822E+02
      7.164  0.8661E+01  0.9056E+02
      7.347  0.0000E+00  0.9200E+02
      7.530  0.0000E+00  0.9200E+02
      7.713  0.0000E+00  0.9200E+02
      7.896  0.0000E+00  0.9200E+02
      8.080  0.2029E+01  0.9206E+02
      8.263  0.5884E+01  0.9380E+02
      8.446  0.1163E+01  0.9412E+02
      8.629  0.1772E+01  0.9595E+02
      8.812  0.0000E+00  0.9600E+02
      8.995  0.0000E+00  0.9600E+02
      9.178  0.0000E+00  0.9600E+02
      9.361  0.0000E+00  0.9600E+02
      9.545  0.0000E+00  0.9600E+02
      9.728  0.0000E+00  0.9600E+02
      9.911  0.0000E+00  0.9600E+02
     10.094  0.0000E+00  0.9600E+02
     10.277  0.0000E+00  0.9600E+02
     10.460  0.0000E+00  0.9600E+02
     10.643  0.0000E+00  0.9600E+02
     10.826  0.0000E+00  0.9600E+02
     11.010  0.0000E+00  0.9600E+02
     11.193  0.0000E+00  0.9600E+02
