       N       E                     dE             d eps       ncg     rms          rms(c)
DAV:   1     0.497749634773E+03    0.49775E+03   -0.28557E+04   776   0.130E+03
DAV:   2    -0.132873400479E+02   -0.51104E+03   -0.48792E+03   928   0.310E+02
DAV:   3    -0.724005748109E+02   -0.59113E+02   -0.58798E+02  1080   0.950E+01
DAV:   4    -0.792593603942E+02   -0.68588E+01   -0.68394E+01  1424   0.304E+01
DAV:   5    -0.800773401508E+02   -0.81798E+00   -0.81785E+00  1104   0.711E+00    0.217E+01
RMM:   6    -0.777277499656E+02    0.23496E+01   -0.71585E+00   884   0.612E+00    0.147E+01
RMM:   7    -0.773093287554E+02    0.41842E+00   -0.20663E+00   964   0.370E+00    0.508E+00
RMM:   8    -0.772411738764E+02    0.68155E-01   -0.23536E-01  1008   0.145E+00    0.480E-01
RMM:   9    -0.772356685798E+02    0.55053E-02   -0.23836E-02  1158   0.480E-01    0.279E-01
RMM:  10    -0.772360859937E+02   -0.41741E-03   -0.60109E-03  1263   0.206E-01    0.112E-01
RMM:  11    -0.772362936178E+02   -0.20762E-03   -0.24763E-03  1223   0.114E-01    0.227E-02
RMM:  12    -0.772363851710E+02   -0.91553E-04   -0.11430E-03  1122   0.737E-02    0.145E-02
RMM:  13    -0.772364221549E+02   -0.36984E-04   -0.43974E-04   786   0.506E-02    0.846E-03
RMM:  14    -0.772364358380E+02   -0.13683E-04   -0.18239E-04   835   0.434E-02
   1 F= -.77236436E+02 E0= -.77236436E+02  d E =0.000000E+00
