 vasp.5.4.4.18Apr17-6-g9f103f2a35 (build Feb 28 2020 14:15:47) complex          
  
 executed on             LinuxIFC date 2022.08.06  22:02:04
 running on   64 total cores
 distrk:  each k-point on   64 cores,    1 groups
 distr:  one band on NCORES_PER_BAND=  16 cores,    4 groups


--------------------------------------------------------------------------------------------------------


 INCAR:
 POTCAR:    PAW P 26Mar2009                       
 POTCAR:    PAW S 27Mar2009                       
 POTCAR:    PAW Li_sv 10Sep2004                   
 POTCAR:    PAW P 26Mar2009                       
   VRHFIN =P : s2p3                                                             
   LEXCH  = CA                                                                  
   EATOM  =   176.5121 eV,   12.9733 Ry                                         
                                                                                
   TITEL  = PAW P 26Mar2009                                                     
   LULTRA =        F    use ultrasoft PP ?                                      
   IUNSCR =        1    unscreen: 0-lin 1-nonlin 2-no                           
   RPACOR =    1.500    partial core radius                                     
   POMASS =   30.974; ZVAL   =    5.000    mass and valenz                      
   RCORE  =    1.900    outmost cutoff radius                                   
   RWIGS  =    2.330; RWIGS  =    1.233    wigner-seitz radius (au A)           
   ENMAX  =  255.155; ENMIN  =  191.366 eV                                      
   ICORE  =        2    local potential                                         
   LCOR   =        T    correct aug charges                                     
   LPAW   =        T    paw PP                                                  
   EAUG   =  342.924                                                            
   DEXC   =    0.000                                                            
   RMAX   =    1.935    core radius for proj-oper                               
   RAUG   =    1.300    factor for augmentation sphere                          
   RDEP   =    1.931    radius for radial grids                                 
   RDEPT  =    1.780    core radius for aug-charge                              
                                                                                
   Atomic configuration                                                         
    6 entries                                                                   
     n  l   j            E        occ.                                          
     1  0  0.50     -2072.7761   2.0000                                         
     2  0  0.50      -172.9483   2.0000                                         
     2  1  1.50      -124.4644   6.0000                                         
     3  0  0.50       -14.0086   2.0000                                         
     3  1  0.50        -5.6037   3.0000                                         
     3  2  1.50        -6.8029   0.0000                                         
   Description                                                                  
     l       E           TYP  RCUT    TYP  RCUT                                 
     0    -14.0086211     23  1.900                                             
     0    -11.8189335     23  1.900                                             
     1     -5.6037292     23  1.900                                             
     1     -0.3527308     23  1.900                                             
     2     -6.8029130     23  1.900                                             
  local pseudopotential read in
  partial core-charges read in
  partial kinetic energy density read in
  atomic valenz-charges read in
  non local Contribution for L=           0  read in
    real space projection operators read in
  non local Contribution for L=           0  read in
    real space projection operators read in
  non local Contribution for L=           1  read in
    real space projection operators read in
  non local Contribution for L=           1  read in
    real space projection operators read in
    PAW grid and wavefunctions read in
 
   number of l-projection  operators is LMAX  =           4
   number of lm-projection operators is LMMAX =           8
 
 POTCAR:    PAW S 27Mar2009                       
   VRHFIN =S : s2p4                                                             
   LEXCH  = CA                                                                  
   EATOM  =   277.3745 eV,   20.3864 Ry                                         
                                                                                
   TITEL  = PAW S 27Mar2009                                                     
   LULTRA =        F    use ultrasoft PP ?                                      
   IUNSCR =        1    unscreen: 0-lin 1-nonlin 2-no                           
   RPACOR =    1.500    partial core radius                                     
   POMASS =   32.066; ZVAL   =    6.000    mass and valenz                      
   RCORE  =    1.900    outmost cutoff radius                                   
   RWIGS  =    2.200; RWIGS  =    1.164    wigner-seitz radius (au A)           
   ENMAX  =  258.602; ENMIN  =  193.952 eV                                      
   ICORE  =        2    local potential                                         
   LCOR   =        T    correct aug charges                                     
   LPAW   =        T    paw PP                                                  
   EAUG   =  335.092                                                            
   DEXC   =    0.000                                                            
   RMAX   =    1.942    core radius for proj-oper                               
   RAUG   =    1.300    factor for augmentation sphere                          
   RDEP   =    1.954    radius for radial grids                                 
   RDEPT  =    1.744    core radius for aug-charge                              
                                                                                
   Atomic configuration                                                         
    6 entries                                                                   
     n  l   j            E        occ.                                          
     1  0  0.50     -2393.1495   2.0000                                         
     2  0  0.50      -210.5411   2.0000                                         
     2  1  1.50      -156.4410   6.0000                                         
     3  0  0.50       -17.2664   2.0000                                         
     3  1  0.50        -7.1129   4.0000                                         
     3  2  1.50        -8.1635   0.0000                                         
   Description                                                                  
     l       E           TYP  RCUT    TYP  RCUT                                 
     0    -17.2664422     23  1.900                                             
     0    -15.8420823     23  1.900                                             
     1     -7.1129072     23  1.900                                             
     1     -2.8398274     23  1.900                                             
     2     -8.1634956     23  1.900                                             
  local pseudopotential read in
  partial core-charges read in
  partial kinetic energy density read in
  atomic valenz-charges read in
  non local Contribution for L=           0  read in
    real space projection operators read in
  non local Contribution for L=           0  read in
    real space projection operators read in
  non local Contribution for L=           1  read in
    real space projection operators read in
  non local Contribution for L=           1  read in
    real space projection operators read in
    PAW grid and wavefunctions read in
 
   number of l-projection  operators is LMAX  =           4
   number of lm-projection operators is LMMAX =           8
 
 POTCAR:    PAW Li_sv 10Sep2004                   
   VRHFIN =Li: 1s2s                                                             
   LEXCH  = CA                                                                  
   EATOM  =   199.5738 eV,   14.6683 Ry                                         
                                                                                
   TITEL  = PAW Li_sv 10Sep2004                                                 
   LULTRA =        F    use ultrasoft PP ?                                      
   IUNSCR =        0    unscreen: 0-lin 1-nonlin 2-no                           
   RPACOR =    0.000    partial core radius                                     
   POMASS =    7.010; ZVAL   =    3.000    mass and valenz                      
   RCORE  =    1.700    outmost cutoff radius                                   
   RWIGS  =    2.050; RWIGS  =    1.085    wigner-seitz radius (au A)           
   ENMAX  =  498.387; ENMIN  =  373.790 eV                                      
   ICORE  =        2    local potential                                         
   LCOR   =        T    correct aug charges                                     
   LPAW   =        T    paw PP                                                  
   EAUG   =  628.945                                                            
   RMAX   =    1.732    core radius for proj-oper                               
   RAUG   =    1.300    factor for augmentation sphere                          
   RDEP   =    1.728    radius for radial grids                                 
   RDEPT  =    1.329    core radius for aug-charge                              
                                                                                
   Atomic configuration                                                         
    4 entries                                                                   
     n  l   j            E        occ.                                          
     1  0  0.50       -51.0884   2.0000                                         
     2  0  0.50        -2.8766   1.0000                                         
     2  1  0.50        -2.8708   0.0000                                         
     3  2  1.50        -1.3606   0.0000                                         
   Description                                                                  
     l       E           TYP  RCUT    TYP  RCUT                                 
     0    -51.0884324     23  1.400                                             
     0     -2.8766458     23  1.700                                             
     1     -2.8708293     23  1.400                                             
     2     -1.3605826     23  1.400                                             
  local pseudopotential read in
  atomic valenz-charges read in
  non local Contribution for L=           0  read in
    real space projection operators read in
  non local Contribution for L=           0  read in
    real space projection operators read in
  non local Contribution for L=           1  read in
    real space projection operators read in
    PAW grid and wavefunctions read in
 
   number of l-projection  operators is LMAX  =           3
   number of lm-projection operators is LMMAX =           5
 
 Optimization of the real space projectors (new method)

 maximal supplied QI-value         = 19.84
 optimisation between [QCUT,QGAM] = [ 10.32, 20.83] = [ 29.81,121.55] Ry 
 Optimized for a Real-space Cutoff    1.39 Angstroem

   l    n(q)    QCUT    max X(q) W(low)/X(q) W(high)/X(q)  e(spline) 
   0      9    10.318   158.476    0.64E-04    0.80E-04    0.60E-07
   0      9    10.318   128.097    0.63E-04    0.79E-04    0.60E-07
   1      8    10.318    73.217    0.18E-03    0.19E-03    0.20E-06
   1      8    10.318    48.248    0.18E-03    0.19E-03    0.19E-06
 Optimization of the real space projectors (new method)

 maximal supplied QI-value         = 19.84
 optimisation between [QCUT,QGAM] = [ 10.32, 20.83] = [ 29.81,121.55] Ry 
 Optimized for a Real-space Cutoff    1.39 Angstroem

   l    n(q)    QCUT    max X(q) W(low)/X(q) W(high)/X(q)  e(spline) 
   0      9    10.318   180.455    0.73E-04    0.81E-04    0.62E-07
   0      9    10.318   157.733    0.72E-04    0.81E-04    0.62E-07
   1      8    10.318    66.201    0.18E-03    0.20E-03    0.20E-06
   1      8    10.318    49.617    0.18E-03    0.20E-03    0.20E-06
 Optimization of the real space projectors (new method)

 maximal supplied QI-value         = 22.11
 optimisation between [QCUT,QGAM] = [ 10.39, 20.78] = [ 30.24,120.96] Ry 
 Optimized for a Real-space Cutoff    1.20 Angstroem

   l    n(q)    QCUT    max X(q) W(low)/X(q) W(high)/X(q)  e(spline) 
   0      7    10.392    10.443    0.77E-04    0.41E-05    0.30E-07
   0      7    10.392     8.514    0.20E-03    0.36E-04    0.67E-07
   1      7    10.392     5.406    0.20E-03    0.20E-03    0.12E-06
  PAW P 26Mar2009                       :
 energy of atom  1       EATOM= -176.5121
 kinetic energy error for atom=    0.0021 (will be added to EATOM!!)
  PAW S 27Mar2009                       :
 energy of atom  2       EATOM= -277.3745
 kinetic energy error for atom=    0.0041 (will be added to EATOM!!)
  PAW Li_sv 10Sep2004                   :
 energy of atom  3       EATOM= -199.5738
 kinetic energy error for atom=    0.0564 (will be added to EATOM!!)
 
 
 POSCAR: Good luck                               
  positions in cartesian coordinates
  No initial velocities read in
 exchange correlation table for  LEXCH =        2
   RHO(1)=    0.500       N(1)  =     2000
   RHO(2)=  100.500       N(2)  =     4000
 


--------------------------------------------------------------------------------------------------------


 ion  position               nearest neighbor table
   1  0.000  0.319  0.300-   7 2.03   6 2.04   3 2.04   9 2.04
   2  0.500  0.681  0.800-   8 2.03   4 2.04   5 2.04  10 2.04
   3  0.220  0.176  0.178-   1 2.04  13 2.28  14 2.42  12 2.46
   4  0.280  0.824  0.678-   2 2.04  14 2.28  13 2.42  11 2.46
   5  0.720  0.824  0.678-   2 2.04  15 2.28  16 2.42  11 2.46
   6  0.780  0.176  0.178-   1 2.04  16 2.28  15 2.42  12 2.46
   7  0.000  0.628  0.208-   1 2.03  15 2.26  14 2.26  11 2.54
   8  0.500  0.372  0.708-   2 2.03  13 2.26  16 2.26  12 2.54
   9  0.000  0.289  0.638-   1 2.04  13 2.27  16 2.27  11 2.50
  10  0.500  0.711  0.138-   2 2.04  14 2.27  15 2.27  12 2.50
  11  0.000  0.657  0.787-   4 2.46   5 2.46   9 2.50   7 2.54
  12  0.500  0.343  0.287-   3 2.46   6 2.46  10 2.50   8 2.54
  13  0.256  0.187  0.801-   8 2.26   9 2.27   3 2.28   4 2.42
  14  0.244  0.813  0.301-   7 2.26  10 2.27   4 2.28   3 2.42
  15  0.756  0.813  0.301-   7 2.26  10 2.27   5 2.28   6 2.42
  16  0.744  0.187  0.801-   8 2.26   9 2.27   6 2.28   5 2.42
 
  LATTYP: Found a simple orthorhombic cell.
 ALAT       =     6.0107907704
 B/A-ratio  =     1.0536837587
 C/A-ratio  =     1.2611026499
  
  Lattice vectors:
  
 A1 = (   0.0000000000,   0.0000000000,  -6.0107907704)
 A2 = (   0.0000000000,  -6.3334726120,   0.0000000000)
 A3 = (  -7.5802241689,   0.0000000000,   0.0000000000)


Analysis of symmetry for initial positions (statically):
=====================================================================
 Subroutine PRICEL returns:
 Original cell was already a primitive cell.
 

 Routine SETGRP: Setting up the symmetry group for a 
 simple orthorhombic supercell.


 Subroutine GETGRP returns: Found  4 space group operations
 (whereof  2 operations were pure point group operations)
 out of a pool of  8 trial point group operations.


The static configuration has the point symmetry C_1h.
 The point group associated with its full space group is C_2v.


Analysis of symmetry for dynamics (positions and initial velocities):
=====================================================================
 Subroutine PRICEL returns:
 Original cell was already a primitive cell.
 

 Routine SETGRP: Setting up the symmetry group for a 
 simple orthorhombic supercell.


 Subroutine GETGRP returns: Found  4 space group operations
 (whereof  2 operations were pure point group operations)
 out of a pool of  8 trial point group operations.


The dynamic configuration has the point symmetry C_1h.
 The point group associated with its full space group is C_2v.


 Subroutine INISYM returns: Found  4 space group operations
 (whereof  2 operations are pure point group operations),
 and found     1 'primitive' translations

 
 
 KPOINTS: Automatic mesh                          

Automatic generation of k-mesh.
Space group operators:
 irot       det(A)        alpha          n_x          n_y          n_z        tau_x        tau_y        tau_z
    1     1.000000     0.000000     1.000000     0.000000     0.000000     0.000000     0.000000     0.000000
    2    -1.000000   180.000000     1.000000     0.000000     0.000000     0.000000     0.000000     0.000000
    3    -1.000000   180.000000     0.000000     1.000000     0.000000    -0.500000    -0.000000    -0.500000
    4     1.000000   180.000000     0.000000     0.000000     1.000000    -0.500000    -0.000000    -0.500000
 
 Subroutine IBZKPT returns following result:
 ===========================================
 
 Found      8 irreducible k-points:
 
 Following reciprocal coordinates:
            Coordinates               Weight
  0.000000  0.000000  0.000000      1.000000
  0.333333  0.000000  0.000000      2.000000
  0.000000  0.333333  0.000000      2.000000
  0.333333  0.333333  0.000000      4.000000
  0.000000  0.000000  0.333333      2.000000
  0.333333  0.000000  0.333333      4.000000
  0.000000  0.333333  0.333333      4.000000
  0.333333  0.333333  0.333333      8.000000
 
 Following cartesian coordinates:
            Coordinates               Weight
  0.000000  0.000000  0.000000      1.000000
  0.043974  0.000000  0.000000      2.000000
  0.000000  0.052630  0.000000      2.000000
  0.043974  0.052630  0.000000      4.000000
  0.000000  0.000000  0.055456      2.000000
  0.043974  0.000000  0.055456      4.000000
  0.000000  0.052630  0.055456      4.000000
  0.043974  0.052630  0.055456      8.000000
 
 TETIRR: Found     70 inequivalent tetrahedra from      162


--------------------------------------------------------------------------------------------------------




 Dimension of arrays:
   k-points           NKPTS =      8   k-points in BZ     NKDIM =      8   number of bands    NBANDS=     48
   number of dos      NEDOS =    301   number of ions     NIONS =     16
   non local maximal  LDIM  =      4   non local SUM 2l+1 LMDIM =      8
   total plane-waves  NPLWV =  90720
   max r-space proj   IRMAX =   3568   max aug-charges    IRDMAX=  10103
   dimension x,y,z NGX =    54 NGY =   42 NGZ =   40
   dimension x,y,z NGXF=   108 NGYF=   84 NGZF=   80
   support grid    NGXF=   108 NGYF=   84 NGZF=   80
   ions per type =               2   8   6
   NGX,Y,Z   is equivalent  to a cutoff of  11.84, 11.02, 11.06 a.u.
   NGXF,Y,Z  is equivalent  to a cutoff of  23.69, 22.05, 22.13 a.u.

 SYSTEM =  unknown system                          
 POSCAR =  Good luck                               

 Startparameter for this run:
   NWRITE =      2    write-flag & timer
   PREC   = accura    normal or accurate (medium, high low for compatibility)
   ISTART =      0    job   : 0-new  1-cont  2-samecut
   ICHARG =      2    charge: 1-file 2-atom 10-const
   ISPIN  =      1    spin polarized calculation?
   LNONCOLLINEAR =      F non collinear calculations
   LSORBIT =      F    spin-orbit coupling
   INIWAV =      1    electr: 0-lowe 1-rand  2-diag
   LASPH  =      F    aspherical Exc in radial PAW
   METAGGA=      F    non-selfconsistent MetaGGA calc.

 Electronic Relaxation 1
   ENCUT  =  420.0 eV  30.87 Ry    5.56 a.u.  12.67 10.58 10.04*2*pi/ulx,y,z
   ENINI  =  420.0     initial cutoff
   ENAUG  =  628.9 eV  augmentation charge cutoff
   NELM   =    100;   NELMIN=  2; NELMDL= -5     # of ELM steps 
   EDIFF  = 0.2E-04   stopping-criterion for ELM
   LREAL  =      T    real-space projection
   NLSPLINE    = F    spline interpolate recip. space projectors
   LCOMPAT=      F    compatible to vasp.4.4
   GGA_COMPAT  = T    GGA compatible to vasp.4.4-vasp.4.6
   LMAXPAW     = -100 max onsite density
   LMAXMIX     =    2 max onsite mixed and CHGCAR
   VOSKOWN=      0    Vosko Wilk Nusair interpolation
   ROPT   =   -0.00025  -0.00025  -0.00025
 Ionic relaxation
   EDIFFG = 0.2E-03   stopping-criterion for IOM
   NSW    =      0    number of steps for IOM
   NBLOCK =      1;   KBLOCK =      1    inner block; outer block 
   IBRION =     -1    ionic relax: 0-MD 1-quasi-New 2-CG
   NFREE  =      1    steps in history (QN), initial steepest desc. (CG)
   ISIF   =      7    stress and relaxation
   IWAVPR =     10    prediction:  0-non 1-charg 2-wave 3-comb
   ISYM   =      2    0-nonsym 1-usesym 2-fastsym
   LCORR  =      T    Harris-Foulkes like correction to forces

   POTIM  = 0.5000    time-step for ionic-motion
   TEIN   =    0.0    initial temperature
   TEBEG  =    0.0;   TEEND  =   0.0 temperature during run
   SMASS  =  -3.00    Nose mass-parameter (am)
   estimated Nose-frequenzy (Omega)   =  0.10E-29 period in steps =****** mass=  -0.131E-26a.u.
   SCALEE = 1.0000    scale energy and forces
   NPACO  =    256;   APACO  = 16.0  distance and # of slots for P.C.
   PSTRESS=    0.0 pullay stress

  Mass of Ions in am
   POMASS =  30.97 32.07  7.01
  Ionic Valenz
   ZVAL   =   5.00  6.00  3.00
  Atomic Wigner-Seitz radii
   RWIGS  =  -1.00 -1.00 -1.00
  virtual crystal weights 
   VCA    =   1.00  1.00  1.00
   NELECT =      76.0000    total number of electrons
   NUPDOWN=      -1.0000    fix difference up-down

 DOS related values:
   EMIN   =  10.00;   EMAX   =-10.00  energy-range for DOS
   EFERMI =   0.00
   ISMEAR =    -5;   SIGMA  =   0.20  broadening in eV -4-tet -1-fermi 0-gaus

 Electronic relaxation 2 (details)
   IALGO  =     68    algorithm
   LDIAG  =      T    sub-space diagonalisation (order eigenvalues)
   LSUBROT=      F    optimize rotation matrix (better conditioning)
   TURBO    =      0    0=normal 1=particle mesh
   IRESTART =      0    0=no restart 2=restart with 2 vectors
   NREBOOT  =      0    no. of reboots
   NMIN     =      0    reboot dimension
   EREF     =   0.00    reference energy to select bands
   IMIX   =      4    mixing-type and parameters
     AMIX     =   0.40;   BMIX     =  1.00
     AMIX_MAG =   1.60;   BMIX_MAG =  1.00
     AMIN     =   0.10
     WC   =   100.;   INIMIX=   1;  MIXPRE=   1;  MAXMIX= -45

 Intra band minimization:
   WEIMIN = 0.0000     energy-eigenvalue tresh-hold
   EBREAK =  0.10E-06  absolut break condition
   DEPER  =   0.30     relativ break condition  

   TIME   =   0.40     timestep for ELM

  volume/ion in A,a.u.               =      18.04       121.71
  Fermi-wavevector in a.u.,A,eV,Ry     =   1.049367  1.983017 14.982350  1.101172
  Thomas-Fermi vector in A             =   2.184327
 
 Write flags
   LWAVE        =      F    write WAVECAR
   LDOWNSAMPLE  =      F    k-point downsampling of WAVECAR
   LCHARG       =      F    write CHGCAR
   LVTOT        =      F    write LOCPOT, total local potential
   LVHAR        =      F    write LOCPOT, Hartree potential only
   LELF         =      F    write electronic localiz. function (ELF)
   LORBIT       =      0    0 simple, 1 ext, 2 COOP (PROOUT), +10 PAW based schemes


 Dipole corrections
   LMONO  =      F    monopole corrections only (constant potential shift)
   LDIPOL =      F    correct potential (dipole corrections)
   IDIPOL =      0    1-x, 2-y, 3-z, 4-all directions 
   EPSILON=  1.0000000 bulk dielectric constant

 Exchange correlation treatment:
   GGA     =    --    GGA type
   LEXCH   =     2    internal setting for exchange type
   VOSKOWN=      0    Vosko Wilk Nusair interpolation
   LHFCALC =     F    Hartree Fock is set to
   LHFONE  =     F    Hartree Fock one center treatment
   AEXX    =    0.0000 exact exchange contribution

 Linear response parameters
   LEPSILON=     F    determine dielectric tensor
   LRPA    =     F    only Hartree local field effects (RPA)
   LNABLA  =     F    use nabla operator in PAW spheres
   LVEL    =     F    velocity operator in full k-point grid
   LINTERFAST=   F  fast interpolation
   KINTER  =     0    interpolate to denser k-point grid
   CSHIFT  =0.1000    complex shift for real part using Kramers Kronig
   OMEGAMAX=  -1.0    maximum frequency
   DEG_THRESHOLD= 0.2000000E-02 threshold for treating states as degnerate
   RTIME   =   -0.100 relaxation time in fs
  (WPLASMAI=    0.000 imaginary part of plasma frequency in eV, 0.658/RTIME)
   DFIELD  = 0.0000000 0.0000000 0.0000000 field for delta impulse in time
 
 Orbital magnetization related:
   ORBITALMAG=     F  switch on orbital magnetization
   LCHIMAG   =     F  perturbation theory with respect to B field
   DQ        =  0.001000  dq finite difference perturbation B field
   LLRAUG    =     F  two centre corrections for induced B field



--------------------------------------------------------------------------------------------------------


 Static calculation
 charge density and potential will be updated during run
 non-spin polarized calculation
 RMM-DIIS sequential band-by-band and
  variant of blocked Davidson during initial phase
 perform sub-space diagonalisation
    before iterative eigenvector-optimisation
 modified Broyden-mixing scheme, WC =      100.0
 initial mixing is a Kerker type mixing with AMIX =  0.4000 and BMIX =      1.0000
 Hartree-type preconditioning will be used
 using additional bands           10
 real space projection scheme for non local part
 use partial core corrections
 calculate Harris-corrections to forces 
   (improved forces if not selfconsistent)
 use of overlap-Matrix (Vanderbilt PP)
 Fermi weights with tetrahedron method with Bloechl corrections


--------------------------------------------------------------------------------------------------------


  energy-cutoff  :      420.00
  volume of cell :      288.57
      direct lattice vectors                 reciprocal lattice vectors
     7.580224169  0.000000000  0.000000000     0.131922220  0.000000000  0.000000000
     0.000000000  6.333472612  0.000000000     0.000000000  0.157891265  0.000000000
     0.000000000  0.000000000  6.010790770     0.000000000  0.000000000  0.166367461

  length of vectors
     7.580224169  6.333472612  6.010790770     0.131922220  0.157891265  0.166367461


 
 k-points in units of 2pi/SCALE and weight: Automatic mesh                          
   0.00000000  0.00000000  0.00000000       0.037
   0.04397407  0.00000000  0.00000000       0.074
   0.00000000  0.05263042  0.00000000       0.074
   0.04397407  0.05263042  0.00000000       0.148
   0.00000000  0.00000000  0.05545582       0.074
   0.04397407  0.00000000  0.05545582       0.148
   0.00000000  0.05263042  0.05545582       0.148
   0.04397407  0.05263042  0.05545582       0.296
 
 k-points in reciprocal lattice and weights: Automatic mesh                          
   0.00000000  0.00000000  0.00000000       0.037
   0.33333333  0.00000000  0.00000000       0.074
   0.00000000  0.33333333  0.00000000       0.074
   0.33333333  0.33333333  0.00000000       0.148
   0.00000000  0.00000000  0.33333333       0.074
   0.33333333  0.00000000  0.33333333       0.148
   0.00000000  0.33333333  0.33333333       0.148
   0.33333333  0.33333333  0.33333333       0.296
 
 position of ions in fractional coordinates (direct lattice) 
   0.00000000  0.31932307  0.30035326
   0.50000000  0.68067693  0.80035326
   0.22019414  0.17645979  0.17830827
   0.27980586  0.82354021  0.67830827
   0.72019414  0.82354021  0.67830827
   0.77980586  0.17645979  0.17830827
   0.00000000  0.62819947  0.20803276
   0.50000000  0.37180053  0.70803276
   0.00000000  0.28949399  0.63805640
   0.50000000  0.71050601  0.13805640
   0.00000000  0.65742560  0.78741053
   0.50000000  0.34257440  0.28741053
   0.25592372  0.18653704  0.80121636
   0.24407628  0.81346296  0.30121636
   0.75592372  0.81346296  0.30121636
   0.74407628  0.18653704  0.80121636
 
 position of ions in cartesian coordinates  (Angst):
   0.00000000  2.02242394  1.80536062
   3.79011208  4.31104868  4.81075601
   1.66912095  1.11760324  1.07177371
   2.12099114  5.21586937  4.07716909
   5.45923303  5.21586937  4.07716909
   5.91110322  1.11760324  1.07177371
   0.00000000  3.97868414  1.25044138
   3.79011208  2.35478848  4.25583676
   0.00000000  1.83350224  3.83522350
   3.79011208  4.49997038  0.82982811
   0.00000000  4.16378701  4.73295993
   3.79011208  2.16968560  1.72756454
   1.93995918  1.18142725  4.81594392
   1.85015290  5.15204536  1.81054854
   5.73007127  5.15204536  1.81054854
   5.64026499  1.18142725  4.81594392
 


--------------------------------------------------------------------------------------------------------


 k-point  1 :   0.0000 0.0000 0.0000  plane waves:    5661
 k-point  2 :   0.3333 0.0000 0.0000  plane waves:    5642
 k-point  3 :   0.0000 0.3333 0.0000  plane waves:    5625
 k-point  4 :   0.3333 0.3333 0.0000  plane waves:    5615
 k-point  5 :   0.0000 0.0000 0.3333  plane waves:    5654
 k-point  6 :   0.3333 0.0000 0.3333  plane waves:    5626
 k-point  7 :   0.0000 0.3333 0.3333  plane waves:    5649
 k-point  8 :   0.3333 0.3333 0.3333  plane waves:    5643

 maximum and minimum number of plane-waves per node :       370      332

 maximum number of plane-waves:      5661
 maximum index in each direction: 
   IXMAX=   12   IYMAX=   10   IZMAX=   10
   IXMIN=  -13   IYMIN=  -10   IZMIN=  -10


 real space projection operators:
  total allocation   :       2647.72 KBytes
  max/ min on nodes  :        202.00        142.38


 parallel 3D FFT for wavefunctions:
    minimum data exchange during FFTs selected (reduces bandwidth)
 parallel 3D FFT for charge:
    minimum data exchange during FFTs selected (reduces bandwidth)


 total amount of memory used by VASP MPI-rank0    33577. kBytes
=======================================================================

   base      :      30000. kBytes
   nonlr-proj:       1212. kBytes
   fftplans  :        656. kBytes
   grid      :       1147. kBytes
   one-center:          3. kBytes
   wavefun   :        559. kBytes
 
     INWAV:  cpu time    0.0000: real time    0.0000
 Broyden mixing: mesh for mixing (old mesh)
   NGX = 25   NGY = 21   NGZ = 21
  (NGX  =108   NGY  = 84   NGZ  = 80)
  gives a total of  11025 points

 initial charge density was supplied:
 charge density of overlapping atoms calculated
 number of electron      76.0000000 magnetization 
 keeping initial charge density in first step


--------------------------------------------------------------------------------------------------------


 Maximum index for non-local projection operator          430
 Maximum index for augmentation-charges          522 (set IRDMAX)


--------------------------------------------------------------------------------------------------------


 First call to EWALD:  gamma=   0.268
 Maximum number of real-space cells 2x 3x 3
 Maximum number of reciprocal cells 3x 3x 3

    FEWALD:  cpu time    0.0017: real time    0.0017


--------------------------------------- Iteration      1(   1)  ---------------------------------------


    POTLOK:  cpu time    0.0050: real time    0.0078
    SETDIJ:  cpu time    0.0033: real time    0.0040
     EDDAV:  cpu time    0.2006: real time    0.2083
 BZINTS: Fermi energy: 15.059337; 76.000000 electrons
         Band energy:-126.507592;  BLOECHL correction: -0.034656
       DOS:  cpu time    0.0046: real time    0.0049
    --------------------------------------------
      LOOP:  cpu time    0.2135: real time    0.2250

 eigenvalue-minimisations  :   776
 total energy-change (2. order) : 0.4977496E+03  (-0.2855651E+04)
 number of electron      76.0000000 magnetization 
 augmentation part       76.0000000 magnetization 

 Free energy of the ion-electron system (eV)
  ---------------------------------------------------
  alpha Z        PSCENC =        68.38118764
  Ewald energy   TEWEN  =     -2729.37858102
  -Hartree energ DENC   =      -618.74371211
  -exchange      EXHF   =         0.00000000
  -V(xc)+E(xc)   XCENC  =       181.80822948
  PAW double counting   =      2494.22442938    -2541.12215007
  entropy T*S    EENTRO =         0.00000000
  eigenvalues    EBANDS =      -126.50759231
  atomic energy  EATOM  =      3769.08782378
  Solvation  Ediel_sol  =         0.00000000
  ---------------------------------------------------
  free energy    TOTEN  =       497.74963477 eV

  energy without entropy =      497.74963477  energy(sigma->0) =      497.74963477


--------------------------------------------------------------------------------------------------------




--------------------------------------- Iteration      1(   2)  ---------------------------------------


     EDDAV:  cpu time    0.1954: real time    0.1958
 BZINTS: Fermi energy:  4.539155; 76.000000 electrons
         Band energy:-637.544567;  BLOECHL correction:  0.000000
       DOS:  cpu time    0.0009: real time    0.0009
    --------------------------------------------
      LOOP:  cpu time    0.1964: real time    0.1967

 eigenvalue-minimisations  :   928
 total energy-change (2. order) :-0.5110370E+03  (-0.4879189E+03)
 number of electron      76.0000000 magnetization 
 augmentation part       76.0000000 magnetization 

 Free energy of the ion-electron system (eV)
  ---------------------------------------------------
  alpha Z        PSCENC =        68.38118764
  Ewald energy   TEWEN  =     -2729.37858102
  -Hartree energ DENC   =      -618.74371211
  -exchange      EXHF   =         0.00000000
  -V(xc)+E(xc)   XCENC  =       181.80822948
  PAW double counting   =      2494.22442938    -2541.12215007
  entropy T*S    EENTRO =         0.00000000
  eigenvalues    EBANDS =      -637.54456713
  atomic energy  EATOM  =      3769.08782378
  Solvation  Ediel_sol  =         0.00000000
  ---------------------------------------------------
  free energy    TOTEN  =       -13.28734005 eV

  energy without entropy =      -13.28734005  energy(sigma->0) =      -13.28734005


--------------------------------------------------------------------------------------------------------




--------------------------------------- Iteration      1(   3)  ---------------------------------------


     EDDAV:  cpu time    0.2180: real time    0.2183
 BZINTS: Fermi energy:  1.552566; 76.000000 electrons
         Band energy:-696.657802;  BLOECHL correction:  0.000000
       DOS:  cpu time    0.0007: real time    0.0007
    --------------------------------------------
      LOOP:  cpu time    0.2187: real time    0.2190

 eigenvalue-minimisations  :  1080
 total energy-change (2. order) :-0.5911323E+02  (-0.5879819E+02)
 number of electron      76.0000000 magnetization 
 augmentation part       76.0000000 magnetization 

 Free energy of the ion-electron system (eV)
  ---------------------------------------------------
  alpha Z        PSCENC =        68.38118764
  Ewald energy   TEWEN  =     -2729.37858102
  -Hartree energ DENC   =      -618.74371211
  -exchange      EXHF   =         0.00000000
  -V(xc)+E(xc)   XCENC  =       181.80822948
  PAW double counting   =      2494.22442938    -2541.12215007
  entropy T*S    EENTRO =         0.00000000
  eigenvalues    EBANDS =      -696.65780190
  atomic energy  EATOM  =      3769.08782378
  Solvation  Ediel_sol  =         0.00000000
  ---------------------------------------------------
  free energy    TOTEN  =       -72.40057481 eV

  energy without entropy =      -72.40057481  energy(sigma->0) =      -72.40057481


--------------------------------------------------------------------------------------------------------




--------------------------------------- Iteration      1(   4)  ---------------------------------------


     EDDAV:  cpu time    0.2798: real time    0.2801
 BZINTS: Fermi energy:  1.490155; 76.000000 electrons
         Band energy:-703.516587;  BLOECHL correction:  0.000000
       DOS:  cpu time    0.0007: real time    0.0007
    --------------------------------------------
      LOOP:  cpu time    0.2804: real time    0.2808

 eigenvalue-minimisations  :  1424
 total energy-change (2. order) :-0.6858786E+01  (-0.6839413E+01)
 number of electron      76.0000000 magnetization 
 augmentation part       76.0000000 magnetization 

 Free energy of the ion-electron system (eV)
  ---------------------------------------------------
  alpha Z        PSCENC =        68.38118764
  Ewald energy   TEWEN  =     -2729.37858102
  -Hartree energ DENC   =      -618.74371211
  -exchange      EXHF   =         0.00000000
  -V(xc)+E(xc)   XCENC  =       181.80822948
  PAW double counting   =      2494.22442938    -2541.12215007
  entropy T*S    EENTRO =         0.00000000
  eigenvalues    EBANDS =      -703.51658748
  atomic energy  EATOM  =      3769.08782378
  Solvation  Ediel_sol  =         0.00000000
  ---------------------------------------------------
  free energy    TOTEN  =       -79.25936039 eV

  energy without entropy =      -79.25936039  energy(sigma->0) =      -79.25936039


--------------------------------------------------------------------------------------------------------




--------------------------------------- Iteration      1(   5)  ---------------------------------------


     EDDAV:  cpu time    0.2296: real time    0.2299
 BZINTS: Fermi energy:  1.495577; 76.000000 electrons
         Band energy:-704.334567;  BLOECHL correction:  0.000000
       DOS:  cpu time    0.0008: real time    0.0008
    CHARGE:  cpu time    0.0165: real time    0.0165
    MIXING:  cpu time    0.0012: real time    0.0019
    --------------------------------------------
      LOOP:  cpu time    0.2481: real time    0.2490

 eigenvalue-minimisations  :  1104
 total energy-change (2. order) :-0.8179798E+00  (-0.8178520E+00)
 number of electron      76.0000016 magnetization 
 augmentation part       -1.8522823 magnetization 

 Broyden mixing:
  rms(total) = 0.21700E+01    rms(broyden)= 0.21697E+01
  rms(prec ) = 0.24521E+01
  weight for this iteration     100.00

 Free energy of the ion-electron system (eV)
  ---------------------------------------------------
  alpha Z        PSCENC =        68.38118764
  Ewald energy   TEWEN  =     -2729.37858102
  -Hartree energ DENC   =      -618.74371211
  -exchange      EXHF   =         0.00000000
  -V(xc)+E(xc)   XCENC  =       181.80822948
  PAW double counting   =      2494.22442938    -2541.12215007
  entropy T*S    EENTRO =         0.00000000
  eigenvalues    EBANDS =      -704.33456724
  atomic energy  EATOM  =      3769.08782378
  Solvation  Ediel_sol  =         0.00000000
  ---------------------------------------------------
  free energy    TOTEN  =       -80.07734015 eV

  energy without entropy =      -80.07734015  energy(sigma->0) =      -80.07734015


--------------------------------------------------------------------------------------------------------




--------------------------------------- Iteration      1(   6)  ---------------------------------------


    POTLOK:  cpu time    0.0033: real time    0.0036
    SETDIJ:  cpu time    0.0010: real time    0.0010
    EDDIAG:  cpu time    0.0516: real time    0.0522
  RMM-DIIS:  cpu time    0.0809: real time    0.0809
    ORTHCH:  cpu time    0.0067: real time    0.0067
 BZINTS: Fermi energy:  2.022481; 76.000000 electrons
         Band energy:-687.130165;  BLOECHL correction:  0.000000
       DOS:  cpu time    0.0008: real time    0.0008
    CHARGE:  cpu time    0.0151: real time    0.0151
    MIXING:  cpu time    0.0005: real time    0.0005
    --------------------------------------------
      LOOP:  cpu time    0.1600: real time    0.1609

 eigenvalue-minimisations  :   884
 total energy-change (2. order) : 0.2349590E+01  (-0.7158453E+00)
 number of electron      76.0000017 magnetization 
 augmentation part       -1.7941362 magnetization 

 Broyden mixing:
  rms(total) = 0.14672E+01    rms(broyden)= 0.14672E+01
  rms(prec ) = 0.15330E+01
  weight for this iteration     100.00

 eigenvalues of (default mixing * dielectric matrix)
  average eigenvalue GAMMA=   2.3485
  2.3485

 Free energy of the ion-electron system (eV)
  ---------------------------------------------------
  alpha Z        PSCENC =        68.38118764
  Ewald energy   TEWEN  =     -2729.37858102
  -Hartree energ DENC   =      -633.73538910
  -exchange      EXHF   =         0.00000000
  -V(xc)+E(xc)   XCENC  =       183.61190028
  PAW double counting   =      3958.73294917    -4007.29747522
  entropy T*S    EENTRO =         0.00000000
  eigenvalues    EBANDS =      -687.13016550
  atomic energy  EATOM  =      3769.08782378
  Solvation  Ediel_sol  =         0.00000000
  ---------------------------------------------------
  free energy    TOTEN  =       -77.72774997 eV

  energy without entropy =      -77.72774997  energy(sigma->0) =      -77.72774997


--------------------------------------------------------------------------------------------------------




--------------------------------------- Iteration      1(   7)  ---------------------------------------


    POTLOK:  cpu time    0.0033: real time    0.0036
    SETDIJ:  cpu time    0.0011: real time    0.0011
    EDDIAG:  cpu time    0.0503: real time    0.0503
  RMM-DIIS:  cpu time    0.0888: real time    0.0888
    ORTHCH:  cpu time    0.0067: real time    0.0067
 BZINTS: Fermi energy:  2.280384; 76.000000 electrons
         Band energy:-672.494741;  BLOECHL correction:  0.000000
       DOS:  cpu time    0.0006: real time    0.0006
    CHARGE:  cpu time    0.0152: real time    0.0152
    MIXING:  cpu time    0.0005: real time    0.0005
    --------------------------------------------
      LOOP:  cpu time    0.1665: real time    0.1668

 eigenvalue-minimisations  :   964
 total energy-change (2. order) : 0.4184212E+00  (-0.2066281E+00)
 number of electron      76.0000017 magnetization 
 augmentation part       -1.7547119 magnetization 

 Broyden mixing:
  rms(total) = 0.50789E+00    rms(broyden)= 0.50789E+00
  rms(prec ) = 0.53223E+00
  weight for this iteration     100.00

 eigenvalues of (default mixing * dielectric matrix)
  average eigenvalue GAMMA=   1.9149
  1.3897  2.4401

 Free energy of the ion-electron system (eV)
  ---------------------------------------------------
  alpha Z        PSCENC =        68.38118764
  Ewald energy   TEWEN  =     -2729.37858102
  -Hartree energ DENC   =      -648.27421802
  -exchange      EXHF   =         0.00000000
  -V(xc)+E(xc)   XCENC  =       185.26714045
  PAW double counting   =      6419.33811762    -6469.23605863
  entropy T*S    EENTRO =         0.00000000
  eigenvalues    EBANDS =      -672.49474058
  atomic energy  EATOM  =      3769.08782378
  Solvation  Ediel_sol  =         0.00000000
  ---------------------------------------------------
  free energy    TOTEN  =       -77.30932876 eV

  energy without entropy =      -77.30932876  energy(sigma->0) =      -77.30932876


--------------------------------------------------------------------------------------------------------




--------------------------------------- Iteration      1(   8)  ---------------------------------------


    POTLOK:  cpu time    0.0030: real time    0.0033
    SETDIJ:  cpu time    0.0010: real time    0.0010
    EDDIAG:  cpu time    0.0494: real time    0.0494
  RMM-DIIS:  cpu time    0.0920: real time    0.0920
    ORTHCH:  cpu time    0.0068: real time    0.0068
 BZINTS: Fermi energy:  2.271479; 76.000000 electrons
         Band energy:-670.070673;  BLOECHL correction:  0.000000
       DOS:  cpu time    0.0008: real time    0.0008
    CHARGE:  cpu time    0.0150: real time    0.0151
    MIXING:  cpu time    0.0005: real time    0.0005
    --------------------------------------------
      LOOP:  cpu time    0.1685: real time    0.1689

 eigenvalue-minimisations  :  1008
 total energy-change (2. order) : 0.6815488E-01  (-0.2353636E-01)
 number of electron      76.0000016 magnetization 
 augmentation part       -1.7688870 magnetization 

 Broyden mixing:
  rms(total) = 0.47961E-01    rms(broyden)= 0.47938E-01
  rms(prec ) = 0.62458E-01
  weight for this iteration     100.00

 eigenvalues of (default mixing * dielectric matrix)
  average eigenvalue GAMMA=   1.6402
  1.0679  2.3235  1.5291

 Free energy of the ion-electron system (eV)
  ---------------------------------------------------
  alpha Z        PSCENC =        68.38118764
  Ewald energy   TEWEN  =     -2729.37858102
  -Hartree energ DENC   =      -650.76272966
  -exchange      EXHF   =         0.00000000
  -V(xc)+E(xc)   XCENC  =       185.56943884
  PAW double counting   =      7501.45255082    -7551.52019084
  entropy T*S    EENTRO =         0.00000000
  eigenvalues    EBANDS =      -670.07067344
  atomic energy  EATOM  =      3769.08782378
  Solvation  Ediel_sol  =         0.00000000
  ---------------------------------------------------
  free energy    TOTEN  =       -77.24117388 eV

  energy without entropy =      -77.24117388  energy(sigma->0) =      -77.24117388


--------------------------------------------------------------------------------------------------------




--------------------------------------- Iteration      1(   9)  ---------------------------------------


    POTLOK:  cpu time    0.0032: real time    0.0035
    SETDIJ:  cpu time    0.0010: real time    0.0010
    EDDIAG:  cpu time    0.0502: real time    0.0502
  RMM-DIIS:  cpu time    0.1040: real time    0.1040
    ORTHCH:  cpu time    0.0067: real time    0.0067
 BZINTS: Fermi energy:  2.265591; 76.000000 electrons
         Band energy:-670.921739;  BLOECHL correction:  0.000000
       DOS:  cpu time    0.0007: real time    0.0007
    CHARGE:  cpu time    0.0152: real time    0.0152
    MIXING:  cpu time    0.0006: real time    0.0006
    --------------------------------------------
      LOOP:  cpu time    0.1816: real time    0.1819

 eigenvalue-minimisations  :  1158
 total energy-change (2. order) : 0.5505297E-02  (-0.2383582E-02)
 number of electron      76.0000016 magnetization 
 augmentation part       -1.7826966 magnetization 

 Broyden mixing:
  rms(total) = 0.27921E-01    rms(broyden)= 0.27908E-01
  rms(prec ) = 0.29889E-01
  weight for this iteration     100.00

 eigenvalues of (default mixing * dielectric matrix)
  average eigenvalue GAMMA=   1.8085
  2.3228  2.3228  1.2943  1.2943

 Free energy of the ion-electron system (eV)
  ---------------------------------------------------
  alpha Z        PSCENC =        68.38118764
  Ewald energy   TEWEN  =     -2729.37858102
  -Hartree energ DENC   =      -649.92652939
  -exchange      EXHF   =         0.00000000
  -V(xc)+E(xc)   XCENC  =       185.51938258
  PAW double counting   =      7401.72828780    -7451.72550103
  entropy T*S    EENTRO =         0.00000000
  eigenvalues    EBANDS =      -670.92173893
  atomic energy  EATOM  =      3769.08782378
  Solvation  Ediel_sol  =         0.00000000
  ---------------------------------------------------
  free energy    TOTEN  =       -77.23566858 eV

  energy without entropy =      -77.23566858  energy(sigma->0) =      -77.23566858


--------------------------------------------------------------------------------------------------------




--------------------------------------- Iteration      1(  10)  ---------------------------------------


    POTLOK:  cpu time    0.0032: real time    0.0036
    SETDIJ:  cpu time    0.0011: real time    0.0011
    EDDIAG:  cpu time    0.0500: real time    0.0500
  RMM-DIIS:  cpu time    0.1147: real time    0.1147
    ORTHCH:  cpu time    0.0068: real time    0.0068
 BZINTS: Fermi energy:  2.266831; 76.000000 electrons
         Band energy:-670.894985;  BLOECHL correction:  0.000000
       DOS:  cpu time    0.0008: real time    0.0008
    CHARGE:  cpu time    0.0160: real time    0.0160
    MIXING:  cpu time    0.0006: real time    0.0006
    --------------------------------------------
      LOOP:  cpu time    0.1931: real time    0.1935

 eigenvalue-minimisations  :  1263
 total energy-change (2. order) :-0.4174138E-03  (-0.6010867E-03)
 number of electron      76.0000016 magnetization 
 augmentation part       -1.7879324 magnetization 

 Broyden mixing:
  rms(total) = 0.11172E-01    rms(broyden)= 0.11156E-01
  rms(prec ) = 0.12956E-01
  weight for this iteration     100.00

 eigenvalues of (default mixing * dielectric matrix)
  average eigenvalue GAMMA=   1.8021
  2.4175  2.4175  1.9446  0.9704  1.2607

 Free energy of the ion-electron system (eV)
  ---------------------------------------------------
  alpha Z        PSCENC =        68.38118764
  Ewald energy   TEWEN  =     -2729.37858102
  -Hartree energ DENC   =      -649.97465369
  -exchange      EXHF   =         0.00000000
  -V(xc)+E(xc)   XCENC  =       185.51793363
  PAW double counting   =      7357.80951468    -7407.78432556
  entropy T*S    EENTRO =         0.00000000
  eigenvalues    EBANDS =      -670.89498546
  atomic energy  EATOM  =      3769.08782378
  Solvation  Ediel_sol  =         0.00000000
  ---------------------------------------------------
  free energy    TOTEN  =       -77.23608599 eV

  energy without entropy =      -77.23608599  energy(sigma->0) =      -77.23608599


--------------------------------------------------------------------------------------------------------




--------------------------------------- Iteration      1(  11)  ---------------------------------------


    POTLOK:  cpu time    0.0035: real time    0.0038
    SETDIJ:  cpu time    0.0011: real time    0.0011
    EDDIAG:  cpu time    0.0562: real time    0.0562
  RMM-DIIS:  cpu time    0.1152: real time    0.1153
    ORTHCH:  cpu time    0.0067: real time    0.0067
 BZINTS: Fermi energy:  2.268257; 76.000000 electrons
         Band energy:-670.571146;  BLOECHL correction:  0.000000
       DOS:  cpu time    0.0008: real time    0.0008
    CHARGE:  cpu time    0.0152: real time    0.0152
    MIXING:  cpu time    0.0006: real time    0.0006
    --------------------------------------------
      LOOP:  cpu time    0.1992: real time    0.1996

 eigenvalue-minimisations  :  1223
 total energy-change (2. order) :-0.2076241E-03  (-0.2476267E-03)
 number of electron      76.0000016 magnetization 
 augmentation part       -1.7891198 magnetization 

 Broyden mixing:
  rms(total) = 0.22704E-02    rms(broyden)= 0.22410E-02
  rms(prec ) = 0.33118E-02
  weight for this iteration     100.00

 eigenvalues of (default mixing * dielectric matrix)
  average eigenvalue GAMMA=   1.7081
  2.5678  2.5678  1.6076  1.3569  1.0742  1.0742

 Free energy of the ion-electron system (eV)
  ---------------------------------------------------
  alpha Z        PSCENC =        68.38118764
  Ewald energy   TEWEN  =     -2729.37858102
  -Hartree energ DENC   =      -650.33232889
  -exchange      EXHF   =         0.00000000
  -V(xc)+E(xc)   XCENC  =       185.55063827
  PAW double counting   =      7349.45700108    -7399.43088835
  entropy T*S    EENTRO =         0.00000000
  eigenvalues    EBANDS =      -670.57114613
  atomic energy  EATOM  =      3769.08782378
  Solvation  Ediel_sol  =         0.00000000
  ---------------------------------------------------
  free energy    TOTEN  =       -77.23629362 eV

  energy without entropy =      -77.23629362  energy(sigma->0) =      -77.23629362


--------------------------------------------------------------------------------------------------------




--------------------------------------- Iteration      1(  12)  ---------------------------------------


    POTLOK:  cpu time    0.0032: real time    0.0035
    SETDIJ:  cpu time    0.0011: real time    0.0011
    EDDIAG:  cpu time    0.0533: real time    0.0533
  RMM-DIIS:  cpu time    0.1022: real time    0.1022
    ORTHCH:  cpu time    0.0067: real time    0.0067
 BZINTS: Fermi energy:  2.266835; 76.000000 electrons
         Band energy:-670.601178;  BLOECHL correction:  0.000000
       DOS:  cpu time    0.0008: real time    0.0008
    CHARGE:  cpu time    0.0149: real time    0.0149
    MIXING:  cpu time    0.0006: real time    0.0006
    --------------------------------------------
      LOOP:  cpu time    0.1827: real time    0.1830

 eigenvalue-minimisations  :  1122
 total energy-change (2. order) :-0.9155326E-04  (-0.1142988E-03)
 number of electron      76.0000016 magnetization 
 augmentation part       -1.7908661 magnetization 

 Broyden mixing:
  rms(total) = 0.14474E-02    rms(broyden)= 0.14255E-02
  rms(prec ) = 0.18047E-02
  weight for this iteration     100.00

 eigenvalues of (default mixing * dielectric matrix)
  average eigenvalue GAMMA=   1.7259
  2.6309  2.6309  1.9304  1.9304  1.2082  1.0340  0.7166

 Free energy of the ion-electron system (eV)
  ---------------------------------------------------
  alpha Z        PSCENC =        68.38118764
  Ewald energy   TEWEN  =     -2729.37858102
  -Hartree energ DENC   =      -650.31259740
  -exchange      EXHF   =         0.00000000
  -V(xc)+E(xc)   XCENC  =       185.55063696
  PAW double counting   =      7345.81685260    -7395.78053007
  entropy T*S    EENTRO =         0.00000000
  eigenvalues    EBANDS =      -670.60117766
  atomic energy  EATOM  =      3769.08782378
  Solvation  Ediel_sol  =         0.00000000
  ---------------------------------------------------
  free energy    TOTEN  =       -77.23638517 eV

  energy without entropy =      -77.23638517  energy(sigma->0) =      -77.23638517


--------------------------------------------------------------------------------------------------------




--------------------------------------- Iteration      1(  13)  ---------------------------------------


    POTLOK:  cpu time    0.0031: real time    0.0034
    SETDIJ:  cpu time    0.0011: real time    0.0011
    EDDIAG:  cpu time    0.0497: real time    0.0497
  RMM-DIIS:  cpu time    0.0757: real time    0.0757
    ORTHCH:  cpu time    0.0067: real time    0.0067
 BZINTS: Fermi energy:  2.266014; 76.000000 electrons
         Band energy:-670.580873;  BLOECHL correction:  0.000000
       DOS:  cpu time    0.0007: real time    0.0007
    CHARGE:  cpu time    0.0153: real time    0.0153
    MIXING:  cpu time    0.0006: real time    0.0006
    --------------------------------------------
      LOOP:  cpu time    0.1529: real time    0.1532

 eigenvalue-minimisations  :   786
 total energy-change (2. order) :-0.3698384E-04  (-0.4397363E-04)
 number of electron      76.0000016 magnetization 
 augmentation part       -1.7915402 magnetization 

 Broyden mixing:
  rms(total) = 0.84552E-03    rms(broyden)= 0.83302E-03
  rms(prec ) = 0.10624E-02
  weight for this iteration     100.00

 eigenvalues of (default mixing * dielectric matrix)
  average eigenvalue GAMMA=   1.7854
  3.4227  2.6316  2.0846  2.0846  1.2191  1.0693  0.8858  0.8858

 Free energy of the ion-electron system (eV)
  ---------------------------------------------------
  alpha Z        PSCENC =        68.38118764
  Ewald energy   TEWEN  =     -2729.37858102
  -Hartree energ DENC   =      -650.34453518
  -exchange      EXHF   =         0.00000000
  -V(xc)+E(xc)   XCENC  =       185.55404110
  PAW double counting   =      7348.38540906    -7398.34089472
  entropy T*S    EENTRO =         0.00000000
  eigenvalues    EBANDS =      -670.58087281
  atomic energy  EATOM  =      3769.08782378
  Solvation  Ediel_sol  =         0.00000000
  ---------------------------------------------------
  free energy    TOTEN  =       -77.23642215 eV

  energy without entropy =      -77.23642215  energy(sigma->0) =      -77.23642215


--------------------------------------------------------------------------------------------------------




--------------------------------------- Iteration      1(  14)  ---------------------------------------


    POTLOK:  cpu time    0.0031: real time    0.0034
    SETDIJ:  cpu time    0.0011: real time    0.0011
    EDDIAG:  cpu time    0.0492: real time    0.0492
  RMM-DIIS:  cpu time    0.0760: real time    0.0760
    ORTHCH:  cpu time    0.0067: real time    0.0067
 BZINTS: Fermi energy:  2.265304; 76.000000 electrons
         Band energy:-670.572897;  BLOECHL correction:  0.000000
       DOS:  cpu time    0.0007: real time    0.0007
    --------------------------------------------
      LOOP:  cpu time    0.1369: real time    0.1372

 eigenvalue-minimisations  :   835
 total energy-change (2. order) :-0.1368317E-04  (-0.1823935E-04)
 number of electron      76.0000016 magnetization 
 augmentation part       -1.7915402 magnetization 

 Free energy of the ion-electron system (eV)
  ---------------------------------------------------
  alpha Z        PSCENC =        68.38118764
  Ewald energy   TEWEN  =     -2729.37858102
  -Hartree energ DENC   =      -650.36298462
  -exchange      EXHF   =         0.00000000
  -V(xc)+E(xc)   XCENC  =       185.55590377
  PAW double counting   =      7348.18842864    -7398.13531726
  entropy T*S    EENTRO =         0.00000000
  eigenvalues    EBANDS =      -670.57289678
  atomic energy  EATOM  =      3769.08782378
  Solvation  Ediel_sol  =         0.00000000
  ---------------------------------------------------
  free energy    TOTEN  =       -77.23643584 eV

  energy without entropy =      -77.23643584  energy(sigma->0) =      -77.23643584


--------------------------------------------------------------------------------------------------------




 average (electrostatic) potential at core
  the test charge radii are     0.9587  0.9698  0.7079
  (the norm of the test charge is              1.0000)
       1 -88.3970       2 -88.3970       3 -88.3061       4 -88.3061       5 -88.3061
       6 -88.3061       7 -88.2998       8 -88.2998       9 -88.2833      10 -88.2833
      11 -64.0959      12 -64.0959      13 -63.4535      14 -63.4535      15 -63.4535
      16 -63.4535
 
 
 
 E-fermi :   2.2653     XC(G=0):  -9.1018     alpha+bet :-10.4659


 k-point     1 :       0.0000    0.0000    0.0000
  band No.  band energies     occupation 
      1     -41.2476      2.00000
      2     -41.2475      2.00000
      3     -40.6428      2.00000
      4     -40.6421      2.00000
      5     -40.6418      2.00000
      6     -40.6411      2.00000
      7     -12.6435      2.00000
      8     -12.4755      2.00000
      9      -9.5747      2.00000
     10      -9.5241      2.00000
     11      -9.4529      2.00000
     12      -9.4298      2.00000
     13      -9.3641      2.00000
     14      -9.2847      2.00000
     15      -5.6637      2.00000
     16      -5.0751      2.00000
     17      -2.6533      2.00000
     18      -2.6452      2.00000
     19      -2.5760      2.00000
     20      -2.2105      2.00000
     21      -2.1772      2.00000
     22      -2.1626      2.00000
     23       0.0044      2.00000
     24       0.0815      2.00000
     25       0.2188      2.00000
     26       0.2258      2.00000
     27       0.3558      2.00000
     28       0.5533      2.00000
     29       0.5706      2.00000
     30       0.9913      2.00000
     31       1.3778      2.00000
     32       1.4135      2.00000
     33       1.7411      2.00000
     34       1.7958      2.00000
     35       1.8805      2.00000
     36       1.8994      2.00000
     37       1.9114      2.00000
     38       2.0109      2.00000
     39       5.7347      0.00000
     40       5.7742      0.00000
     41       5.9973      0.00000
     42       6.1789      0.00000
     43       6.4127      0.00000
     44       7.1366      0.00000
     45       7.2776      0.00000
     46       7.3120      0.00000
     47       7.9881      0.00000
     48       8.1325      0.00000

 k-point     2 :       0.3333    0.0000    0.0000
  band No.  band energies     occupation 
      1     -41.2476      2.00000
      2     -41.2475      2.00000
      3     -40.6425      2.00000
      4     -40.6421      2.00000
      5     -40.6418      2.00000
      6     -40.6413      2.00000
      7     -12.6027      2.00000
      8     -12.5187      2.00000
      9      -9.5575      2.00000
     10      -9.4970      2.00000
     11      -9.4523      2.00000
     12      -9.4451      2.00000
     13      -9.3858      2.00000
     14      -9.3081      2.00000
     15      -5.4844      2.00000
     16      -5.1904      2.00000
     17      -2.7023      2.00000
     18      -2.6793      2.00000
     19      -2.5385      2.00000
     20      -2.3079      2.00000
     21      -2.1654      2.00000
     22      -2.1195      2.00000
     23      -0.0814      2.00000
     24      -0.0333      2.00000
     25       0.2458      2.00000
     26       0.4551      2.00000
     27       0.4611      2.00000
     28       0.6746      2.00000
     29       0.9084      2.00000
     30       1.0390      2.00000
     31       1.2187      2.00000
     32       1.4462      2.00000
     33       1.5355      2.00000
     34       1.5851      2.00000
     35       1.6660      2.00000
     36       1.7756      2.00000
     37       1.8328      2.00000
     38       1.8832      2.00000
     39       5.9592      0.00000
     40       6.0819      0.00000
     41       6.2464      0.00000
     42       6.3589      0.00000
     43       6.6686      0.00000
     44       6.7677      0.00000
     45       7.1240      0.00000
     46       7.1809      0.00000
     47       8.1103      0.00000
     48       8.6955      0.00000

 k-point     3 :       0.0000    0.3333    0.0000
  band No.  band energies     occupation 
      1     -41.2476      2.00000
      2     -41.2475      2.00000
      3     -40.6427      2.00000
      4     -40.6421      2.00000
      5     -40.6418      2.00000
      6     -40.6411      2.00000
      7     -12.5927      2.00000
      8     -12.4964      2.00000
      9      -9.6451      2.00000
     10      -9.5478      2.00000
     11      -9.4312      2.00000
     12      -9.4253      2.00000
     13      -9.3921      2.00000
     14      -9.3268      2.00000
     15      -5.4547      2.00000
     16      -5.1462      2.00000
     17      -2.7114      2.00000
     18      -2.5107      2.00000
     19      -2.3368      2.00000
     20      -2.2858      2.00000
     21      -2.1395      2.00000
     22      -2.1222      2.00000
     23      -0.1225      2.00000
     24       0.0181      2.00000
     25       0.0586      2.00000
     26       0.2060      2.00000
     27       0.3999      2.00000
     28       0.6826      2.00000
     29       0.9055      2.00000
     30       1.0347      2.00000
     31       1.2147      2.00000
     32       1.4345      2.00000
     33       1.5145      2.00000
     34       1.5887      2.00000
     35       1.6183      2.00000
     36       1.7741      2.00000
     37       1.9735      2.00000
     38       2.2005      2.00000
     39       5.0681      0.00000
     40       5.9475      0.00000
     41       6.2528      0.00000
     42       6.5116      0.00000
     43       6.6361      0.00000
     44       6.9931      0.00000
     45       7.1476      0.00000
     46       7.1650      0.00000
     47       8.0623      0.00000
     48       8.5408      0.00000

 k-point     4 :       0.3333    0.3333    0.0000
  band No.  band energies     occupation 
      1     -41.2475      2.00000
      2     -41.2475      2.00000
      3     -40.6425      2.00000
      4     -40.6421      2.00000
      5     -40.6417      2.00000
      6     -40.6413      2.00000
      7     -12.5677      2.00000
      8     -12.5195      2.00000
      9      -9.6576      2.00000
     10      -9.6067      2.00000
     11      -9.4301      2.00000
     12      -9.3991      2.00000
     13      -9.3601      2.00000
     14      -9.3289      2.00000
     15      -5.3397      2.00000
     16      -5.1851      2.00000
     17      -2.6654      2.00000
     18      -2.5337      2.00000
     19      -2.4116      2.00000
     20      -2.3040      2.00000
     21      -2.1398      2.00000
     22      -2.1155      2.00000
     23      -0.1549      2.00000
     24      -0.1078      2.00000
     25       0.0508      2.00000
     26       0.3156      2.00000
     27       0.5467      2.00000
     28       0.7689      2.00000
     29       0.9276      2.00000
     30       0.9814      2.00000
     31       1.1204      2.00000
     32       1.2862      2.00000
     33       1.3453      2.00000
     34       1.4955      2.00000
     35       1.7191      2.00000
     36       1.8303      2.00000
     37       1.9823      2.00000
     38       2.0561      2.00000
     39       5.5326      0.00000
     40       6.0124      0.00000
     41       6.4156      0.00000
     42       6.5708      0.00000
     43       6.7947      0.00000
     44       6.8409      0.00000
     45       7.0704      0.00000
     46       7.1758      0.00000
     47       8.3236      0.00000
     48       8.5234      0.00000

 k-point     5 :       0.0000    0.0000    0.3333
  band No.  band energies     occupation 
      1     -41.2475      2.00000
      2     -41.2475      2.00000
      3     -40.6426      2.00000
      4     -40.6423      2.00000
      5     -40.6416      2.00000
      6     -40.6413      2.00000
      7     -12.5732      2.00000
      8     -12.4861      2.00000
      9      -9.5807      2.00000
     10      -9.5239      2.00000
     11      -9.5008      2.00000
     12      -9.4581      2.00000
     13      -9.4187      2.00000
     14      -9.4034      2.00000
     15      -5.4704      2.00000
     16      -5.1435      2.00000
     17      -2.5077      2.00000
     18      -2.3939      2.00000
     19      -2.2229      2.00000
     20      -2.1876      2.00000
     21      -2.1521      2.00000
     22      -2.0474      2.00000
     23      -0.2272      2.00000
     24      -0.1417      2.00000
     25      -0.0948      2.00000
     26      -0.0468      2.00000
     27       0.3673      2.00000
     28       0.7731      2.00000
     29       0.8581      2.00000
     30       1.0534      2.00000
     31       1.1290      2.00000
     32       1.4969      2.00000
     33       1.5795      2.00000
     34       1.7389      2.00000
     35       1.7563      2.00000
     36       1.8986      2.00000
     37       1.9831      2.00000
     38       2.0928      2.00000
     39       5.1246      0.00000
     40       5.5641      0.00000
     41       6.0272      0.00000
     42       6.5062      0.00000
     43       6.8240      0.00000
     44       6.8676      0.00000
     45       7.0354      0.00000
     46       7.2952      0.00000
     47       8.2630      0.00000
     48       8.5987      0.00000

 k-point     6 :       0.3333    0.0000    0.3333
  band No.  band energies     occupation 
      1     -41.2475      2.00000
      2     -41.2475      2.00000
      3     -40.6423      2.00000
      4     -40.6420      2.00000
      5     -40.6418      2.00000
      6     -40.6415      2.00000
      7     -12.5503      2.00000
      8     -12.5066      2.00000
      9      -9.6308      2.00000
     10      -9.5830      2.00000
     11      -9.4762      2.00000
     12      -9.4418      2.00000
     13      -9.4018      2.00000
     14      -9.3646      2.00000
     15      -5.3563      2.00000
     16      -5.1924      2.00000
     17      -2.5187      2.00000
     18      -2.4604      2.00000
     19      -2.2269      2.00000
     20      -2.2133      2.00000
     21      -2.0959      2.00000
     22      -2.0375      2.00000
     23      -0.2210      2.00000
     24      -0.1543      2.00000
     25       0.0832      2.00000
     26       0.1442      2.00000
     27       0.2272      2.00000
     28       0.5524      2.00000
     29       0.9319      2.00000
     30       0.9564      2.00000
     31       1.1565      2.00000
     32       1.2559      2.00000
     33       1.5580      2.00000
     34       1.6651      2.00000
     35       1.7435      2.00000
     36       1.9267      2.00000
     37       1.9329      2.00000
     38       1.9954      2.00000
     39       5.4835      0.00000
     40       5.8150      0.00000
     41       6.5073      0.00000
     42       6.5742      0.00000
     43       6.8197      0.00000
     44       6.8310      0.00000
     45       7.1600      0.00000
     46       7.2906      0.00000
     47       8.1581      0.00000
     48       8.5373      0.00000

 k-point     7 :       0.0000    0.3333    0.3333
  band No.  band energies     occupation 
      1     -41.2475      2.00000
      2     -41.2475      2.00000
      3     -40.6426      2.00000
      4     -40.6423      2.00000
      5     -40.6417      2.00000
      6     -40.6413      2.00000
      7     -12.5380      2.00000
      8     -12.4880      2.00000
      9      -9.6401      2.00000
     10      -9.5579      2.00000
     11      -9.5096      2.00000
     12      -9.4591      2.00000
     13      -9.4317      2.00000
     14      -9.4243      2.00000
     15      -5.3239      2.00000
     16      -5.1534      2.00000
     17      -2.3507      2.00000
     18      -2.2843      2.00000
     19      -2.2209      2.00000
     20      -2.1864      2.00000
     21      -2.1532      2.00000
     22      -2.0647      2.00000
     23      -0.1726      2.00000
     24      -0.0310      2.00000
     25       0.0100      2.00000
     26       0.0780      2.00000
     27       0.3324      2.00000
     28       0.5796      2.00000
     29       0.8585      2.00000
     30       0.9451      2.00000
     31       1.1363      2.00000
     32       1.2275      2.00000
     33       1.5734      2.00000
     34       1.6186      2.00000
     35       1.6877      2.00000
     36       1.9386      2.00000
     37       1.9592      2.00000
     38       2.0149      2.00000
     39       5.0218      0.00000
     40       5.3059      0.00000
     41       6.3650      0.00000
     42       6.5240      0.00000
     43       6.6723      0.00000
     44       6.7583      0.00000
     45       6.8404      0.00000
     46       6.9741      0.00000
     47       8.1575      0.00000
     48       8.6009      0.00000

 k-point     8 :       0.3333    0.3333    0.3333
  band No.  band energies     occupation 
      1     -41.2475      2.00000
      2     -41.2475      2.00000
      3     -40.6424      2.00000
      4     -40.6421      2.00000
      5     -40.6418      2.00000
      6     -40.6415      2.00000
      7     -12.5241      2.00000
      8     -12.4990      2.00000
      9      -9.6211      2.00000
     10      -9.5770      2.00000
     11      -9.5424      2.00000
     12      -9.4783      2.00000
     13      -9.4214      2.00000
     14      -9.4056      2.00000
     15      -5.2278      2.00000
     16      -5.1419      2.00000
     17      -2.4258      2.00000
     18      -2.3684      2.00000
     19      -2.1807      2.00000
     20      -2.1727      2.00000
     21      -2.0629      2.00000
     22      -2.0198      2.00000
     23      -0.2997      2.00000
     24      -0.2059      2.00000
     25      -0.1024      2.00000
     26       0.0911      2.00000
     27       0.4747      2.00000
     28       0.5808      2.00000
     29       0.8345      2.00000
     30       0.9570      2.00000
     31       1.0237      2.00000
     32       1.1662      2.00000
     33       1.5042      2.00000
     34       1.5833      2.00000
     35       1.7437      2.00000
     36       1.8420      2.00000
     37       2.0172      2.00000
     38       2.1204      2.00000
     39       5.3133      0.00000
     40       5.5707      0.00000
     41       6.4824      0.00000
     42       6.5545      0.00000
     43       6.7155      0.00000
     44       6.9040      0.00000
     45       7.0683      0.00000
     46       7.1643      0.00000
     47       8.2377      0.00000
     48       8.4495      0.00000


--------------------------------------------------------------------------------------------------------


 soft charge-density along one line, spin component           1
         0         1         2         3         4         5         6         7         8         9
 total charge-density along one line
 
 pseudopotential strength for first ion, spin component:           1
 30.068  37.516   0.000  -0.000  -0.000   0.000  -0.000  -0.000
 37.516  46.813   0.000  -0.000  -0.000   0.000  -0.000  -0.000
  0.000   0.000   6.587  -0.000   0.000  10.200  -0.000   0.000
 -0.000  -0.000  -0.000   6.587   0.000  -0.000  10.200   0.000
 -0.000  -0.000   0.000   0.000   6.587   0.000   0.000  10.200
  0.000   0.000  10.200  -0.000   0.000  15.814  -0.000   0.000
 -0.000  -0.000  -0.000  10.200   0.000  -0.000  15.813   0.000
 -0.000  -0.000   0.000   0.000  10.200   0.000   0.000  15.813
 total augmentation occupancy for first ion, spin component:           1
 10.828  -6.166  -0.021  -0.023   0.000   0.012   0.010   0.000
 -6.166   3.957   0.016   0.016   0.000  -0.009  -0.006   0.000
 -0.021   0.016   4.348  -0.051   0.000  -1.447   0.024   0.000
 -0.023   0.016  -0.051   4.318   0.000   0.024  -1.433   0.000
  0.000   0.000   0.000   0.000   4.360   0.000   0.000  -1.451
  0.012  -0.009  -1.447   0.024   0.000   0.519  -0.011   0.000
  0.010  -0.006   0.024  -1.433   0.000  -0.011   0.513   0.000
  0.000   0.000   0.000   0.000  -1.451   0.000   0.000   0.522


------------------------ aborting loop because EDIFF is reached ----------------------------------------


    CHARGE:  cpu time    0.0152: real time    0.0152
    FORLOC:  cpu time    0.0008: real time    0.0008
    FORNL :  cpu time    0.0346: real time    0.0347
    STRESS:  cpu time    0.1023: real time    0.1030
    FORCOR:  cpu time    0.0026: real time    0.0026
    FORHAR:  cpu time    0.0023: real time    0.0023
    MIXING:  cpu time    0.0006: real time    0.0006
    OFIELD:  cpu time    0.0000: real time    0.0000

  FORCE on cell =-STRESS in cart. coord.  units (eV):
  Direction    XX          YY          ZZ          XY          YZ          ZX
  --------------------------------------------------------------------------------------
  Alpha Z    68.38119    68.38119    68.38119
  Ewald    -878.90893  -970.73386  -879.74121     0.00000     0.00000     0.00000
  Hartree   225.28703   187.96238   237.14323    -0.00000    -0.00000     0.00000
  E(xc)    -277.34943  -277.25912  -277.28435    -0.00000    -0.00000    -0.00000
  Local    -693.67493  -566.77021  -705.16561     0.00000    -0.00000    -0.00000
  n-local   602.96313   601.20881   601.63234    -0.14041    -0.01769    -0.07312
  augment   -45.09936   -44.87962   -44.91334    -0.00000    -0.00000     0.00000
  Kinetic  1000.57617  1000.28394  1000.48858     0.24038    -0.31390     0.16385
  Fock        0.00000     0.00000     0.00000     0.00000     0.00000     0.00000
  -------------------------------------------------------------------------------------
  Total       2.17487    -1.80649     0.54083     0.00000     0.00000     0.00000
  in kB      12.07503   -10.02976     3.00270     0.00000     0.00000     0.00000
  external pressure =        1.68 kB  Pullay stress =        0.00 kB


 VOLUME and BASIS-vectors are now :
 -----------------------------------------------------------------------------
  energy-cutoff  :      420.00
  volume of cell :      288.57
      direct lattice vectors                 reciprocal lattice vectors
     7.580224169  0.000000000  0.000000000     0.131922220  0.000000000  0.000000000
     0.000000000  6.333472612  0.000000000     0.000000000  0.157891265  0.000000000
     0.000000000  0.000000000  6.010790770     0.000000000  0.000000000  0.166367461

  length of vectors
     7.580224169  6.333472612  6.010790770     0.131922220  0.157891265  0.166367461


 FORCES acting on ions
    electron-ion (+dipol)            ewald-force                    non-local-force                 convergence-correction
 -----------------------------------------------------------------------------------------------
   0.276E-09 0.145E+01 -.132E+00   -.205E-09 -.148E+01 0.113E+00   0.000E+00 0.300E-01 0.424E-01   0.163E-09 -.151E-02 0.537E-04
   0.691E-08 -.145E+01 -.132E+00   0.249E-08 0.148E+01 0.113E+00   0.000E+00 -.300E-01 0.424E-01   -.168E-09 0.151E-02 0.537E-04
   -.565E+02 0.305E+02 0.151E+02   0.584E+02 -.320E+02 -.161E+02   -.193E+01 0.133E+01 0.138E+01   0.371E-02 -.485E-02 -.222E-02
   0.565E+02 -.305E+02 0.151E+02   -.584E+02 0.320E+02 -.161E+02   0.193E+01 -.133E+01 0.138E+01   -.371E-02 0.485E-02 -.222E-02
   -.565E+02 -.305E+02 0.151E+02   0.584E+02 0.320E+02 -.161E+02   -.193E+01 -.133E+01 0.138E+01   0.371E-02 0.485E-02 -.222E-02
   0.565E+02 0.305E+02 0.151E+02   -.584E+02 -.320E+02 -.161E+02   0.193E+01 0.133E+01 0.138E+01   -.371E-02 -.485E-02 -.222E-02
   -.483E-09 -.602E+02 0.276E+02   -.234E-08 0.628E+02 -.282E+02   0.000E+00 -.283E+01 0.245E+00   0.206E-09 0.683E-02 0.394E-03
   0.193E-07 0.602E+02 0.276E+02   0.359E-08 -.628E+02 -.282E+02   0.000E+00 0.283E+01 0.245E+00   -.206E-09 -.683E-02 0.394E-03
   0.376E-09 0.894E+01 -.559E+02   -.496E-08 -.953E+01 0.587E+02   0.000E+00 0.909E+00 -.284E+01   0.204E-09 -.324E-02 0.415E-02
   0.183E-07 -.894E+01 -.559E+02   0.637E-08 0.953E+01 0.587E+02   0.000E+00 -.909E+00 -.284E+01   -.207E-09 0.324E-02 0.415E-02
   -.331E-09 -.962E+01 -.354E+01   -.322E-08 0.899E+01 0.369E+01   0.000E+00 0.412E+00 -.511E-01   0.103E-09 0.119E-02 -.525E-03
   0.136E-07 0.962E+01 -.354E+01   0.419E-08 -.899E+01 0.369E+01   0.000E+00 -.412E+00 -.511E-01   -.102E-09 -.119E-02 -.525E-03
   -.252E+01 0.617E+01 0.987E+00   0.231E+01 -.588E+01 -.103E+01   0.185E+00 -.523E+00 -.967E-01   0.281E-03 -.123E-02 0.137E-03
   0.252E+01 -.617E+01 0.987E+00   -.231E+01 0.588E+01 -.103E+01   -.185E+00 0.523E+00 -.967E-01   -.281E-03 0.123E-02 0.137E-03
   -.252E+01 -.617E+01 0.987E+00   0.231E+01 0.588E+01 -.103E+01   0.185E+00 0.523E+00 -.967E-01   0.281E-03 0.123E-02 0.137E-03
   0.252E+01 0.617E+01 0.987E+00   -.231E+01 -.588E+01 -.103E+01   -.185E+00 -.523E+00 -.967E-01   -.281E-03 -.123E-02 0.137E-03
 -----------------------------------------------------------------------------------------------
   0.862E-07 -.184E-06 0.821E-01   0.426E-13 0.977E-14 -.688E-14   0.000E+00 0.000E+00 -.841E-01   -.685E-11 -.140E-10 -.164E-03
 
 
 POSITION                                       TOTAL-FORCE (eV/Angst)
 -----------------------------------------------------------------------------------
      0.00000      2.02242      1.80536         0.000000      0.001252      0.023240
      3.79011      4.31105      4.81076         0.000000     -0.001252      0.023240
      1.66912      1.11760      1.07177        -0.036783     -0.160953      0.316971
      2.12099      5.21587      4.07717         0.036783      0.160953      0.316971
      5.45923      5.21587      4.07717        -0.036783      0.160953      0.316971
      5.91110      1.11760      1.07177         0.036783     -0.160953      0.316971
      0.00000      3.97868      1.25044         0.000000     -0.180318     -0.405090
      3.79011      2.35479      4.25584         0.000000      0.180318     -0.405090
      0.00000      1.83350      3.83522         0.000000      0.310596     -0.066814
      3.79011      4.49997      0.82983         0.000000     -0.310596     -0.066814
      0.00000      4.16379      4.73296         0.000000     -0.219408      0.092597
      3.79011      2.16969      1.72756         0.000000      0.219408      0.092597
      1.93996      1.18143      4.81594        -0.032476     -0.235789     -0.138937
      1.85015      5.15205      1.81055         0.032476      0.235789     -0.138937
      5.73007      5.15205      1.81055        -0.032476      0.235789     -0.138937
      5.64026      1.18143      4.81594         0.032476     -0.235789     -0.138937
 -----------------------------------------------------------------------------------
    total drift:                                0.000000     -0.000000     -0.002165


--------------------------------------------------------------------------------------------------------



  FREE ENERGIE OF THE ION-ELECTRON SYSTEM (eV)
  ---------------------------------------------------
  free  energy   TOTEN  =       -77.23643584 eV

  energy  without entropy=      -77.23643584  energy(sigma->0) =      -77.23643584
 


--------------------------------------------------------------------------------------------------------


    POTLOK:  cpu time    0.0038: real time    0.0042


--------------------------------------------------------------------------------------------------------


     LOOP+:  cpu time    2.8670: real time    2.8890
    4ORBIT:  cpu time    0.0000: real time    0.0000
 BZINTS: Fermi energy:  2.265304; 76.000000 electrons
         Band energy:-670.572897;  BLOECHL correction:  0.000000

 total amount of memory used by VASP MPI-rank0    33577. kBytes
=======================================================================

   base      :      30000. kBytes
   nonlr-proj:       1212. kBytes
   fftplans  :        656. kBytes
   grid      :       1147. kBytes
   one-center:          3. kBytes
   wavefun   :        559. kBytes
 
  
  
 General timing and accounting informations for this job:
 ========================================================
  
                  Total CPU time used (sec):        3.808
                            User time (sec):        3.403
                          System time (sec):        0.405
                         Elapsed time (sec):        4.999
  
                   Maximum memory used (kb):      141708.
                   Average memory used (kb):           0.
  
                          Minor page faults:        20642
                          Major page faults:           89
                 Voluntary context switches:         1979
