<?xml version="1.0" encoding="ISO-8859-1"?>
<modeling>
 <generator>
  <i name="program" type="string">vasp </i>
  <i name="version" type="string">5.4.4.18Apr17-6-g9f103f2a35  </i>
  <i name="subversion" type="string">(build Feb 28 2020 14:15:47) complex            parallel </i>
  <i name="platform" type="string">LinuxIFC </i>
  <i name="date" type="string">2022 08 06 </i>
  <i name="time" type="string">22:02:04 </i>
 </generator>
 <incar>
  <i type="int" name="ISTART">     0</i>
  <i type="string" name="PREC">accurate</i>
  <i type="string" name="ALGO"> FAST</i>
  <i type="int" name="ISPIN">     1</i>
  <i type="int" name="ICHARG">     2</i>
  <i type="int" name="INIWAV">     1</i>
  <i type="int" name="NELM">   100</i>
  <i type="int" name="IBRION">     2</i>
  <i name="EDIFF">      0.00002000</i>
  <i name="EDIFFG">      0.00020000</i>
  <i type="int" name="NSW">     0</i>
  <i type="int" name="ISIF">     7</i>
  <i name="ENCUT">    420.00000000</i>
  <i type="string" name="LREAL"> AUTO</i>
  <i type="int" name="ISMEAR">    -5</i>
  <i type="logical" name="LWAVE"> F  </i>
  <i type="logical" name="LCHARG"> F  </i>
  <v type="int" name="KPOINT_BSE">    -1     0     0     0</v>
  <i type="int" name="NELM">   100</i>
 </incar>
 <structure name="primitive_cell" >
  <crystal>
   <varray name="basis" >
    <v>       7.58022417       0.00000000       0.00000000 </v>
    <v>       0.00000000       6.33347261       0.00000000 </v>
    <v>       0.00000000       0.00000000       6.01079077 </v>
   </varray>
   <i name="volume">    288.57290863 </i>
   <varray name="rec_basis" >
    <v>       0.13192222       0.00000000       0.00000000 </v>
    <v>       0.00000000       0.15789126       0.00000000 </v>
    <v>       0.00000000       0.00000000       0.16636746 </v>
   </varray>
  </crystal>
  <varray name="positions" >
   <v>       0.00000000       0.31932307       0.30035326 </v>
   <v>       0.00000000      -0.37180053       0.20803276 </v>
   <v>      -0.22019414       0.17645979       0.17830827 </v>
   <v>       0.22019414       0.17645979       0.17830827 </v>
   <v>       0.00000000       0.28949399      -0.36194360 </v>
   <v>       0.00000000      -0.34257440      -0.21258947 </v>
   <v>      -0.24407628      -0.18653704       0.30121636 </v>
   <v>       0.24407628      -0.18653704       0.30121636 </v>
   <v>       0.25592372       0.18653704      -0.19878364 </v>
   <v>      -0.25592372       0.18653704      -0.19878364 </v>
   <v>       0.50000000       0.34257440       0.28741053 </v>
   <v>       0.27980586      -0.17645979      -0.32169173 </v>
   <v>      -0.27980586      -0.17645979      -0.32169173 </v>
   <v>       0.50000000       0.37180053      -0.29196724 </v>
   <v>       0.50000000      -0.28949399       0.13805640 </v>
   <v>       0.50000000      -0.31932307      -0.19964674 </v>
  </varray>
 </structure>
 <varray name="primitive_index" >
  <v type="int" >        1 </v>
  <v type="int" >        7 </v>
  <v type="int" >        6 </v>
  <v type="int" >        3 </v>
  <v type="int" >        9 </v>
  <v type="int" >       11 </v>
  <v type="int" >       15 </v>
  <v type="int" >       14 </v>
  <v type="int" >       13 </v>
  <v type="int" >       16 </v>
  <v type="int" >       12 </v>
  <v type="int" >        4 </v>
  <v type="int" >        5 </v>
  <v type="int" >        8 </v>
  <v type="int" >       10 </v>
  <v type="int" >        2 </v>
 </varray>
 <kpoints>
  <generation param="Monkhorst-Pack">
   <v type="int" name="divisions">       3        3        3 </v>
   <v name="usershift">      0.00000000       0.00000000       0.00000000 </v>
   <v name="genvec1">      0.33333333       0.00000000       0.00000000 </v>
   <v name="genvec2">      0.00000000       0.33333333       0.00000000 </v>
   <v name="genvec3">      0.00000000       0.00000000       0.33333333 </v>
   <v name="shift">      0.00000000       0.00000000       0.00000000 </v>
  </generation>
  <varray name="kpointlist" >
   <v>       0.00000000       0.00000000       0.00000000 </v>
   <v>       0.33333333       0.00000000       0.00000000 </v>
   <v>       0.00000000       0.33333333       0.00000000 </v>
   <v>       0.33333333       0.33333333       0.00000000 </v>
   <v>       0.00000000       0.00000000       0.33333333 </v>
   <v>       0.33333333       0.00000000       0.33333333 </v>
   <v>       0.00000000       0.33333333       0.33333333 </v>
   <v>       0.33333333       0.33333333       0.33333333 </v>
  </varray>
  <varray name="weights" >
   <v>       0.03703704 </v>
   <v>       0.07407407 </v>
   <v>       0.07407407 </v>
   <v>       0.14814815 </v>
   <v>       0.07407407 </v>
   <v>       0.14814815 </v>
   <v>       0.14814815 </v>
   <v>       0.29629630 </v>
  </varray>
  <varray name="tetrahedronlist"  type="int" >
   <v type="int" >        2        1        2        4        5 </v>
   <v type="int" >        2        1        3        4        5 </v>
   <v type="int" >        2        3        4        5        7 </v>
   <v type="int" >        2        2        4        5        6 </v>
   <v type="int" >        2        4        5        6        8 </v>
   <v type="int" >        2        4        5        7        8 </v>
   <v type="int" >        2        2        2        4        6 </v>
   <v type="int" >        2        2        4        4        6 </v>
   <v type="int" >        2        4        4        6        8 </v>
   <v type="int" >        2        2        4        6        6 </v>
   <v type="int" >        2        4        6        6        8 </v>
   <v type="int" >        2        4        6        8        8 </v>
   <v type="int" >        2        1        2        3        6 </v>
   <v type="int" >        2        2        3        4        6 </v>
   <v type="int" >        2        3        4        6        8 </v>
   <v type="int" >        2        1        3        5        6 </v>
   <v type="int" >        2        3        5        6        7 </v>
   <v type="int" >        2        3        6        7        8 </v>
   <v type="int" >        2        3        4        4        7 </v>
   <v type="int" >        2        3        3        4        7 </v>
   <v type="int" >        2        3        4        7        7 </v>
   <v type="int" >        2        4        4        7        8 </v>
   <v type="int" >        2        4        7        8        8 </v>
   <v type="int" >        2        4        7        7        8 </v>
   <v type="int" >        4        4        4        4        8 </v>
   <v type="int" >        4        4        4        8        8 </v>
   <v type="int" >        4        4        8        8        8 </v>
   <v type="int" >        2        3        3        4        8 </v>
   <v type="int" >        2        3        4        4        8 </v>
   <v type="int" >        2        3        4        8        8 </v>
   <v type="int" >        2        3        3        7        8 </v>
   <v type="int" >        2        3        7        7        8 </v>
   <v type="int" >        2        3        7        8        8 </v>
   <v type="int" >        2        2        3        4        7 </v>
   <v type="int" >        2        1        2        3        7 </v>
   <v type="int" >        2        1        2        5        7 </v>
   <v type="int" >        2        2        4        7        8 </v>
   <v type="int" >        2        2        6        7        8 </v>
   <v type="int" >        2        2        5        6        7 </v>
   <v type="int" >        2        2        4        4        8 </v>
   <v type="int" >        2        2        2        4        8 </v>
   <v type="int" >        2        2        2        6        8 </v>
   <v type="int" >        2        2        4        8        8 </v>
   <v type="int" >        2        2        6        8        8 </v>
   <v type="int" >        2        2        6        6        8 </v>
   <v type="int" >        2        1        3        4        8 </v>
   <v type="int" >        2        1        2        4        8 </v>
   <v type="int" >        2        1        2        6        8 </v>
   <v type="int" >        2        1        3        7        8 </v>
   <v type="int" >        2        1        5        7        8 </v>
   <v type="int" >        2        1        5        6        8 </v>
   <v type="int" >        2        5        5        6        8 </v>
   <v type="int" >        2        5        5        7        8 </v>
   <v type="int" >        2        5        7        7        8 </v>
   <v type="int" >        2        5        6        6        8 </v>
   <v type="int" >        2        5        6        8        8 </v>
   <v type="int" >        2        5        7        8        8 </v>
   <v type="int" >        4        6        6        6        8 </v>
   <v type="int" >        4        6        6        8        8 </v>
   <v type="int" >        4        6        8        8        8 </v>
   <v type="int" >        2        5        6        6        7 </v>
   <v type="int" >        2        6        6        7        8 </v>
   <v type="int" >        2        6        7        8        8 </v>
   <v type="int" >        2        5        5        6        7 </v>
   <v type="int" >        2        5        6        7        7 </v>
   <v type="int" >        2        6        7        7        8 </v>
   <v type="int" >        4        7        7        8        8 </v>
   <v type="int" >        4        7        7        7        8 </v>
   <v type="int" >        4        7        8        8        8 </v>
   <v type="int" >        6        8        8        8        8 </v>
  </varray>
  <i name="volumeweight">      0.00617284 </i>
 </kpoints>
 <parameters>
  <separator name="general" >
   <i type="string" name="SYSTEM">unknown system</i>
   <i type="logical" name="LCOMPAT"> F  </i>
  </separator>
  <separator name="electronic" >
   <i type="string" name="PREC">accura</i>
   <i name="ENMAX">    420.00000000</i>
   <i name="ENAUG">    628.94500000</i>
   <i name="EDIFF">      0.00002000</i>
   <i type="int" name="IALGO">    68</i>
   <i type="int" name="IWAVPR">    10</i>
   <i type="int" name="NBANDS">    48</i>
   <i name="NELECT">     76.00000000</i>
   <i type="int" name="TURBO">     0</i>
   <i type="int" name="IRESTART">     0</i>
   <i type="int" name="NREBOOT">     0</i>
   <i type="int" name="NMIN">     0</i>
   <i name="EREF">      0.00000000</i>
   <separator name="electronic smearing" >
    <i type="int" name="ISMEAR">    -5</i>
    <i name="SIGMA">      0.20000000</i>
    <i name="KSPACING">      0.50000000</i>
    <i type="logical" name="KGAMMA"> T  </i>
   </separator>
   <separator name="electronic projectors" >
    <i type="logical" name="LREAL"> T  </i>
    <v name="ROPT">     -0.00025000     -0.00025000     -0.00025000</v>
    <i type="int" name="LMAXPAW">  -100</i>
    <i type="int" name="LMAXMIX">     2</i>
    <i type="logical" name="NLSPLINE"> F  </i>
   </separator>
   <separator name="electronic startup" >
    <i type="int" name="ISTART">     0</i>
    <i type="int" name="ICHARG">     2</i>
    <i type="int" name="INIWAV">     1</i>
   </separator>
   <separator name="electronic spin" >
    <i type="int" name="ISPIN">     1</i>
    <i type="logical" name="LNONCOLLINEAR"> F  </i>
    <v name="MAGMOM">      1.00000000      1.00000000      1.00000000      1.00000000      1.00000000      1.00000000      1.00000000      1.00000000      1.00000000      1.00000000      1.00000000      1.00000000      1.00000000      1.00000000      1.00000000      1.00000000</v>
    <i name="NUPDOWN">     -1.00000000</i>
    <i type="logical" name="LSORBIT"> F  </i>
    <v name="SAXIS">      0.00000000      0.00000000      1.00000000</v>
    <i type="logical" name="LSPIRAL"> F  </i>
    <v name="QSPIRAL">      0.00000000      0.00000000      0.00000000</v>
    <i type="logical" name="LZEROZ"> F  </i>
   </separator>
   <separator name="electronic exchange-correlation" >
    <i type="logical" name="LASPH"> F  </i>
    <i type="logical" name="LMETAGGA"> F  </i>
   </separator>
   <separator name="electronic convergence" >
    <i type="int" name="NELM">   100</i>
    <i type="int" name="NELMDL">    -5</i>
    <i type="int" name="NELMIN">     2</i>
    <i name="ENINI">    420.00000000</i>
    <separator name="electronic convergence detail" >
     <i type="logical" name="LDIAG"> T  </i>
     <i type="logical" name="LSUBROT"> F  </i>
     <i name="WEIMIN">      0.00000000</i>
     <i name="EBREAK">      0.00000010</i>
     <i name="DEPER">      0.30000000</i>
     <i type="int" name="NRMM">     4</i>
     <i name="TIME">      0.40000000</i>
    </separator>
   </separator>
   <separator name="electronic mixer" >
    <i name="AMIX">      0.40000000</i>
    <i name="BMIX">      1.00000000</i>
    <i name="AMIN">      0.10000000</i>
    <i name="AMIX_MAG">      1.60000000</i>
    <i name="BMIX_MAG">      1.00000000</i>
    <separator name="electronic mixer details" >
     <i type="int" name="IMIX">     4</i>
     <i type="logical" name="MIXFIRST"> F  </i>
     <i type="int" name="MAXMIX">   -45</i>
     <i name="WC">    100.00000000</i>
     <i type="int" name="INIMIX">     1</i>
     <i type="int" name="MIXPRE">     1</i>
     <i type="int" name="MREMOVE">     5</i>
    </separator>
   </separator>
   <separator name="electronic dipolcorrection" >
    <i type="logical" name="LDIPOL"> F  </i>
    <i type="logical" name="LMONO"> F  </i>
    <i type="int" name="IDIPOL">     0</i>
    <i name="EPSILON">      1.00000000</i>
    <v name="DIPOL">   -100.00000000   -100.00000000   -100.00000000</v>
    <i name="EFIELD">      0.00000000</i>
   </separator>
  </separator>
  <separator name="grids" >
   <i type="int" name="NGX">    54</i>
   <i type="int" name="NGY">    42</i>
   <i type="int" name="NGZ">    40</i>
   <i type="int" name="NGXF">   108</i>
   <i type="int" name="NGYF">    84</i>
   <i type="int" name="NGZF">    80</i>
   <i type="logical" name="ADDGRID"> F  </i>
  </separator>
  <separator name="ionic" >
   <i type="int" name="NSW">     0</i>
   <i type="int" name="IBRION">    -1</i>
   <i type="int" name="MDALGO">     0</i>
   <i type="int" name="ISIF">     7</i>
   <i name="PSTRESS">      0.00000000</i>
   <i name="EDIFFG">      0.00020000</i>
   <i type="int" name="NFREE">     1</i>
   <i name="POTIM">      0.50000000</i>
   <i name="SMASS">     -3.00000000</i>
   <i name="SCALEE">      1.00000000</i>
  </separator>
  <separator name="ionic md" >
   <i name="TEBEG">      0.00010000</i>
   <i name="TEEND">      0.00010000</i>
   <i type="int" name="NBLOCK">     1</i>
   <i type="int" name="KBLOCK">     1</i>
   <i type="int" name="NPACO">   256</i>
   <i name="APACO">     16.00000000</i>
  </separator>
  <separator name="symmetry" >
   <i type="int" name="ISYM">     2</i>
   <i name="SYMPREC">      0.00001000</i>
  </separator>
  <separator name="dos" >
   <i type="int" name="LORBIT">     0</i>
   <v name="RWIGS">     -1.00000000     -1.00000000     -1.00000000</v>
   <i type="int" name="NEDOS">   301</i>
   <i name="EMIN">     10.00000000</i>
   <i name="EMAX">    -10.00000000</i>
   <i name="EFERMI">      0.00000000</i>
  </separator>
  <separator name="writing" >
   <i type="int" name="NWRITE">     2</i>
   <i type="logical" name="LWAVE"> F  </i>
   <i type="logical" name="LDOWNSAMPLE"> F  </i>
   <i type="logical" name="LCHARG"> F  </i>
   <i type="logical" name="LPARD"> F  </i>
   <i type="logical" name="LVTOT"> F  </i>
   <i type="logical" name="LVHAR"> F  </i>
   <i type="logical" name="LELF"> F  </i>
   <i type="logical" name="LOPTICS"> F  </i>
   <v name="STM">      0.00000000      0.00000000      0.00000000      0.00000000      0.00000000      0.00000000      0.00000000</v>
  </separator>
  <separator name="performance" >
   <i type="int" name="NPAR">     4</i>
   <i type="int" name="NSIM">     4</i>
   <i type="int" name="NBLK">    -1</i>
   <i type="logical" name="LPLANE"> T  </i>
   <i type="logical" name="LSCALAPACK"> T  </i>
   <i type="logical" name="LSCAAWARE"> F  </i>
   <i type="logical" name="LSCALU"> F  </i>
   <i type="logical" name="LASYNC"> F  </i>
   <i type="logical" name="LORBITALREAL"> F  </i>
  </separator>
  <separator name="miscellaneous" >
   <i type="int" name="IDIOT">     3</i>
   <i type="int" name="ISPECIAL">     0</i>
   <i type="logical" name="LMUSIC"> F  </i>
   <v name="POMASS">     30.97400000     32.06600000      7.01000000</v>
   <v name="DARWINR">      0.00000000      0.00000000      0.00000000</v>
   <v name="DARWINV">      1.00000000      1.00000000      1.00000000</v>
   <i type="logical" name="LCORR"> T  </i>
  </separator>
  <i type="logical" name="GGA_COMPAT"> T  </i>
  <i type="logical" name="LBERRY"> F  </i>
  <i type="int" name="ICORELEVEL">     0</i>
  <i type="logical" name="LDAU"> F  </i>
  <i type="int" name="I_CONSTRAINED_M">     0</i>
  <separator name="electronic exchange-correlation" >
   <i type="string" name="GGA">--</i>
   <i type="int" name="VOSKOWN">     0</i>
   <i type="logical" name="LHFCALC"> F  </i>
   <i type="string" name="PRECFOCK"></i>
   <i type="logical" name="LSYMGRAD"> F  </i>
   <i type="logical" name="LHFONE"> F  </i>
   <i type="logical" name="LRHFCALC"> F  </i>
   <i type="logical" name="LTHOMAS"> F  </i>
   <i type="logical" name="LMODELHF"> F  </i>
   <i name="ENCUT4O">     -1.00000000</i>
   <i type="int" name="EXXOEP">     0</i>
   <i type="int" name="FOURORBIT">     0</i>
   <i name="AEXX">      0.00000000</i>
   <i name="HFALPHA">      0.00000000</i>
   <i name="MCALPHA">      0.00000000</i>
   <i name="ALDAX">      1.00000000</i>
   <i name="AGGAX">      1.00000000</i>
   <i name="ALDAC">      1.00000000</i>
   <i name="AGGAC">      1.00000000</i>
   <i type="int" name="NKREDX">     1</i>
   <i type="int" name="NKREDY">     1</i>
   <i type="int" name="NKREDZ">     1</i>
   <i type="logical" name="SHIFTRED"> F  </i>
   <i type="logical" name="ODDONLY"> F  </i>
   <i type="logical" name="EVENONLY"> F  </i>
   <i type="int" name="LMAXFOCK">     0</i>
   <i type="int" name="NMAXFOCKAE">     0</i>
   <i type="logical" name="LFOCKAEDFT"> F  </i>
   <i name="HFSCREEN">      0.00000000</i>
   <i name="HFSCREENC">      0.00000000</i>
   <i type="int" name="NBANDSGWLOW">     0</i>
  </separator>
  <separator name="vdW DFT" >
   <i type="logical" name="LUSE_VDW"> F  </i>
   <i name="Zab_VDW">     -0.84910000</i>
   <i name="PARAM1">      0.12340000</i>
   <i name="PARAM2">      1.00000000</i>
   <i name="PARAM3">      0.00000000</i>
  </separator>
  <separator name="model GW" >
   <i type="int" name="MODEL_GW">     0</i>
   <i name="MODEL_EPS0">     10.82148407</i>
   <i name="MODEL_ALPHA">      1.00000000</i>
  </separator>
  <separator name="linear response parameters" >
   <i type="logical" name="LEPSILON"> F  </i>
   <i type="logical" name="LRPA"> F  </i>
   <i type="logical" name="LNABLA"> F  </i>
   <i type="logical" name="LVEL"> F  </i>
   <i type="int" name="KINTER">     0</i>
   <i name="CSHIFT">      0.10000000</i>
   <i name="OMEGAMAX">     -1.00000000</i>
   <i name="DEG_THRESHOLD">      0.00200000</i>
   <i name="RTIME">     -0.10000000</i>
   <i name="WPLASMAI">      0.00000000</i>
   <v name="DFIELD">      0.00000000      0.00000000      0.00000000</v>
   <v name="WPLASMA">      0.00000000      0.00000000      0.00000000      0.00000000      0.00000000      0.00000000      0.00000000      0.00000000      0.00000000</v>
  </separator>
  <separator name="orbital magnetization" >
   <i type="logical" name="NUCIND"> F  </i>
   <v name="MAGPOS">      0.00000000      0.00000000      0.00000000</v>
   <i type="logical" name="LNICSALL"> T  </i>
   <i type="logical" name="ORBITALMAG"> F  </i>
   <i type="logical" name="LMAGBLOCH"> F  </i>
   <i type="logical" name="LCHIMAG"> F  </i>
   <i type="logical" name="LGAUGE"> T  </i>
   <i type="int" name="MAGATOM">     0</i>
   <v name="MAGDIPOL">      0.00000000      0.00000000      0.00000000</v>
   <v name="AVECCONST">      0.00000000      0.00000000      0.00000000</v>
  </separator>
  <separator name="response functions" >
   <i type="logical" name="LADDER"> F  </i>
   <i type="logical" name="LRPAFORCE"> F  </i>
   <i type="logical" name="LFXC"> F  </i>
   <i type="logical" name="LHARTREE"> T  </i>
   <i type="int" name="IBSE">     0</i>
   <v type="int" name="KPOINT">    -1     0     0     0</v>
   <i type="logical" name="LTCTE"> F  </i>
   <i type="logical" name="LTETE"> F  </i>
   <i type="logical" name="LTRIPLET"> F  </i>
   <i type="logical" name="LFXCEPS"> F  </i>
   <i type="logical" name="LFXHEG"> F  </i>
   <i type="int" name="NATURALO">     2</i>
   <i type="logical" name="L2ORDER"> F  </i>
   <i type="logical" name="LMP2LT"> F  </i>
   <i type="logical" name="LUSEW"> F  </i>
   <i name="ENCUTGW">     -2.00000000</i>
   <i name="ENCUTGWSOFT">     -2.00000000</i>
   <i name="ENCUTLF">     -1.00000000</i>
   <i type="int" name="LMAXMP2">    -1</i>
   <i name="SCISSOR">      0.00000000</i>
   <i type="int" name="NOMEGA">     0</i>
   <i type="int" name="NOMEGAR">     0</i>
   <i type="int" name="NBANDSGW">    -1</i>
   <i type="int" name="NBANDSO">    -1</i>
   <i type="int" name="NBANDSV">    -1</i>
   <i type="int" name="NELM">   100</i>
   <i type="int" name="NELMHF">     1</i>
   <i type="int" name="DIM">     3</i>
   <i type="int" name="ANTIRES">     0</i>
   <i name="OMEGAMAX">    -30.00000000</i>
   <i name="OMEGAMIN">    -30.00000000</i>
   <i name="OMEGATL">   -200.00000000</i>
   <i type="int" name="OMEGAGRID">   140</i>
   <i name="CSHIFT">     -0.10000000</i>
   <i type="logical" name="SELFENERGY"> F  </i>
   <i type="logical" name="LSPECTRAL"> F  </i>
   <i type="logical" name="LSPECTRALGW"> F  </i>
   <i type="logical" name="LSINGLES"> F  </i>
   <i type="logical" name="LFERMIGW"> F  </i>
   <i type="logical" name="ODDONLYGW"> F  </i>
   <i type="logical" name="EVENONLYGW"> F  </i>
   <i type="int" name="NKREDLFX">     1</i>
   <i type="int" name="NKREDLFY">     1</i>
   <i type="int" name="NKREDLFZ">     1</i>
   <i type="int" name="MAXMEM">  2800</i>
   <i type="int" name="TELESCOPE">     0</i>
   <i type="int" name="TAUPAR">     1</i>
   <i type="int" name="OMEGAPAR">    -1</i>
   <i name="LAMBDA">      1.00000000</i>
  </separator>
  <separator name="External order field" >
   <i name="OFIELD_KAPPA">      0.00000000</i>
   <v name="OFIELD_K">      0.00000000      0.00000000      0.00000000</v>
   <i name="OFIELD_Q6_NEAR">      0.00000000</i>
   <i name="OFIELD_Q6_FAR">      0.00000000</i>
   <i name="OFIELD_A">      0.00000000</i>
  </separator>
 </parameters>
 <atominfo>
  <atoms>      16 </atoms>
  <types>       3 </types>
  <array name="atoms" >
   <dimension dim="1">ion</dimension>
   <field type="string">element</field>
   <field type="int">atomtype</field>
   <set>
    <rc><c>P </c><c>   1</c></rc>
    <rc><c>P </c><c>   1</c></rc>
    <rc><c>S </c><c>   2</c></rc>
    <rc><c>S </c><c>   2</c></rc>
    <rc><c>S </c><c>   2</c></rc>
    <rc><c>S </c><c>   2</c></rc>
    <rc><c>S </c><c>   2</c></rc>
    <rc><c>S </c><c>   2</c></rc>
    <rc><c>S </c><c>   2</c></rc>
    <rc><c>S </c><c>   2</c></rc>
    <rc><c>Li</c><c>   3</c></rc>
    <rc><c>Li</c><c>   3</c></rc>
    <rc><c>Li</c><c>   3</c></rc>
    <rc><c>Li</c><c>   3</c></rc>
    <rc><c>Li</c><c>   3</c></rc>
    <rc><c>Li</c><c>   3</c></rc>
   </set>
  </array>
  <array name="atomtypes" >
   <dimension dim="1">type</dimension>
   <field type="int">atomspertype</field>
   <field type="string">element</field>
   <field>mass</field>
   <field>valence</field>
   <field type="string">pseudopotential</field>
   <set>
    <rc><c>   2</c><c>P </c><c>     30.97400000</c><c>      5.00000000</c><c>  PAW P 26Mar2009                       </c></rc>
    <rc><c>   8</c><c>S </c><c>     32.06600000</c><c>      6.00000000</c><c>  PAW S 27Mar2009                       </c></rc>
    <rc><c>   6</c><c>Li</c><c>      7.01000000</c><c>      3.00000000</c><c>  PAW Li_sv 10Sep2004                   </c></rc>
   </set>
  </array>
 </atominfo>
 <structure name="initialpos" >
  <crystal>
   <varray name="basis" >
    <v>       7.58022417       0.00000000       0.00000000 </v>
    <v>       0.00000000       6.33347261       0.00000000 </v>
    <v>       0.00000000       0.00000000       6.01079077 </v>
   </varray>
   <i name="volume">    288.57290863 </i>
   <varray name="rec_basis" >
    <v>       0.13192222       0.00000000       0.00000000 </v>
    <v>       0.00000000       0.15789126       0.00000000 </v>
    <v>       0.00000000       0.00000000       0.16636746 </v>
   </varray>
  </crystal>
  <varray name="positions" >
   <v>       0.00000000       0.31932307       0.30035326 </v>
   <v>       0.50000000       0.68067693       0.80035326 </v>
   <v>       0.22019414       0.17645979       0.17830827 </v>
   <v>       0.27980586       0.82354021       0.67830827 </v>
   <v>       0.72019414       0.82354021       0.67830827 </v>
   <v>       0.77980586       0.17645979       0.17830827 </v>
   <v>       0.00000000       0.62819947       0.20803276 </v>
   <v>       0.50000000       0.37180053       0.70803276 </v>
   <v>       0.00000000       0.28949399       0.63805640 </v>
   <v>       0.50000000       0.71050601       0.13805640 </v>
   <v>       0.00000000       0.65742560       0.78741053 </v>
   <v>       0.50000000       0.34257440       0.28741053 </v>
   <v>       0.25592372       0.18653704       0.80121636 </v>
   <v>       0.24407628       0.81346296       0.30121636 </v>
   <v>       0.75592372       0.81346296       0.30121636 </v>
   <v>       0.74407628       0.18653704       0.80121636 </v>
  </varray>
 </structure>
 <calculation>
  <scstep>
   <time name="dav">    0.20    0.21</time>
   <time name="total">    0.21    0.22</time>
   <energy>
    <i name="alphaZ">     68.38118764 </i>
    <i name="ewald">  -2729.37858102 </i>
    <i name="hartreedc">   -618.74371211 </i>
    <i name="XCdc">    181.80822948 </i>
    <i name="pawpsdc">   2494.22442938 </i>
    <i name="pawaedc">  -2541.12215007 </i>
    <i name="eentropy">      0.00000000 </i>
    <i name="bandstr">   -126.50759231 </i>
    <i name="atom">   3769.08782378 </i>
    <i name="e_fr_energy">    497.74963477 </i>
    <i name="e_wo_entrp">    497.74963477 </i>
    <i name="e_0_energy">    497.74963477 </i>
   </energy>
  </scstep>
  <scstep>
   <time name="dav">    0.20    0.20</time>
   <time name="total">    0.20    0.20</time>
   <energy>
    <i name="e_fr_energy">    -13.28734005 </i>
    <i name="e_wo_entrp">    -13.28734005 </i>
    <i name="e_0_energy">    -13.28734005 </i>
   </energy>
  </scstep>
  <scstep>
   <time name="dav">    0.22    0.22</time>
   <time name="total">    0.22    0.22</time>
   <energy>
    <i name="e_fr_energy">    -72.40057481 </i>
    <i name="e_wo_entrp">    -72.40057481 </i>
    <i name="e_0_energy">    -72.40057481 </i>
   </energy>
  </scstep>
  <scstep>
   <time name="dav">    0.28    0.28</time>
   <time name="total">    0.28    0.28</time>
   <energy>
    <i name="e_fr_energy">    -79.25936039 </i>
    <i name="e_wo_entrp">    -79.25936039 </i>
    <i name="e_0_energy">    -79.25936039 </i>
   </energy>
  </scstep>
  <scstep>
   <time name="dav">    0.23    0.23</time>
   <time name="total">    0.25    0.25</time>
   <energy>
    <i name="e_fr_energy">    -80.07734015 </i>
    <i name="e_wo_entrp">    -80.07734015 </i>
    <i name="e_0_energy">    -80.07734015 </i>
   </energy>
  </scstep>
  <scstep>
   <time name="diag">    0.05    0.05</time>
   <time name="diis">    0.08    0.08</time>
   <time name="orth">    0.01    0.01</time>
   <time name="total">    0.16    0.16</time>
   <energy>
    <i name="e_fr_energy">    -77.72774997 </i>
    <i name="e_wo_entrp">    -77.72774997 </i>
    <i name="e_0_energy">    -77.72774997 </i>
   </energy>
  </scstep>
  <scstep>
   <time name="diag">    0.05    0.05</time>
   <time name="diis">    0.09    0.09</time>
   <time name="orth">    0.01    0.01</time>
   <time name="total">    0.17    0.17</time>
   <energy>
    <i name="e_fr_energy">    -77.30932876 </i>
    <i name="e_wo_entrp">    -77.30932876 </i>
    <i name="e_0_energy">    -77.30932876 </i>
   </energy>
  </scstep>
  <scstep>
   <time name="diag">    0.05    0.05</time>
   <time name="diis">    0.09    0.09</time>
   <time name="orth">    0.01    0.01</time>
   <time name="total">    0.17    0.17</time>
   <energy>
    <i name="e_fr_energy">    -77.24117388 </i>
    <i name="e_wo_entrp">    -77.24117388 </i>
    <i name="e_0_energy">    -77.24117388 </i>
   </energy>
  </scstep>
  <scstep>
   <time name="diag">    0.05    0.05</time>
   <time name="diis">    0.10    0.10</time>
   <time name="orth">    0.01    0.01</time>
   <time name="total">    0.18    0.18</time>
   <energy>
    <i name="e_fr_energy">    -77.23566858 </i>
    <i name="e_wo_entrp">    -77.23566858 </i>
    <i name="e_0_energy">    -77.23566858 </i>
   </energy>
  </scstep>
  <scstep>
   <time name="diag">    0.05    0.05</time>
   <time name="diis">    0.11    0.11</time>
   <time name="orth">    0.01    0.01</time>
   <time name="total">    0.19    0.19</time>
   <energy>
    <i name="e_fr_energy">    -77.23608599 </i>
    <i name="e_wo_entrp">    -77.23608599 </i>
    <i name="e_0_energy">    -77.23608599 </i>
   </energy>
  </scstep>
  <scstep>
   <time name="diag">    0.06    0.06</time>
   <time name="diis">    0.12    0.12</time>
   <time name="orth">    0.01    0.01</time>
   <time name="total">    0.20    0.20</time>
   <energy>
    <i name="e_fr_energy">    -77.23629362 </i>
    <i name="e_wo_entrp">    -77.23629362 </i>
    <i name="e_0_energy">    -77.23629362 </i>
   </energy>
  </scstep>
  <scstep>
   <time name="diag">    0.05    0.05</time>
   <time name="diis">    0.10    0.10</time>
   <time name="orth">    0.01    0.01</time>
   <time name="total">    0.18    0.18</time>
   <energy>
    <i name="e_fr_energy">    -77.23638517 </i>
    <i name="e_wo_entrp">    -77.23638517 </i>
    <i name="e_0_energy">    -77.23638517 </i>
   </energy>
  </scstep>
  <scstep>
   <time name="diag">    0.05    0.05</time>
   <time name="diis">    0.08    0.08</time>
   <time name="orth">    0.01    0.01</time>
   <time name="total">    0.15    0.15</time>
   <energy>
    <i name="e_fr_energy">    -77.23642215 </i>
    <i name="e_wo_entrp">    -77.23642215 </i>
    <i name="e_0_energy">    -77.23642215 </i>
   </energy>
  </scstep>
  <scstep>
   <time name="diag">    0.05    0.05</time>
   <time name="diis">    0.08    0.08</time>
   <time name="orth">    0.01    0.01</time>
   <time name="total">    0.14    0.14</time>
   <energy>
    <i name="alphaZ">     68.38118764 </i>
    <i name="ewald">  -2729.37858102 </i>
    <i name="hartreedc">   -650.36298462 </i>
    <i name="XCdc">    185.55590377 </i>
    <i name="pawpsdc">   7348.18842864 </i>
    <i name="pawaedc">  -7398.13531726 </i>
    <i name="eentropy">      0.00000000 </i>
    <i name="bandstr">   -670.57289678 </i>
    <i name="atom">   3769.08782378 </i>
    <i name="e_fr_energy">    -77.23643584 </i>
    <i name="e_wo_entrp">    -77.23643584 </i>
    <i name="e_0_energy">    -77.23643584 </i>
   </energy>
  </scstep>
  <structure>
   <crystal>
    <varray name="basis" >
     <v>       7.58022417       0.00000000       0.00000000 </v>
     <v>       0.00000000       6.33347261       0.00000000 </v>
     <v>       0.00000000       0.00000000       6.01079077 </v>
    </varray>
    <i name="volume">    288.57290863 </i>
    <varray name="rec_basis" >
     <v>       0.13192222       0.00000000       0.00000000 </v>
     <v>       0.00000000       0.15789126       0.00000000 </v>
     <v>       0.00000000       0.00000000       0.16636746 </v>
    </varray>
   </crystal>
   <varray name="positions" >
    <v>       0.00000000       0.31932307       0.30035326 </v>
    <v>       0.50000000       0.68067693       0.80035326 </v>
    <v>       0.22019414       0.17645979       0.17830827 </v>
    <v>       0.27980586       0.82354021       0.67830827 </v>
    <v>       0.72019414       0.82354021       0.67830827 </v>
    <v>       0.77980586       0.17645979       0.17830827 </v>
    <v>       0.00000000       0.62819947       0.20803276 </v>
    <v>       0.50000000       0.37180053       0.70803276 </v>
    <v>       0.00000000       0.28949399       0.63805640 </v>
    <v>       0.50000000       0.71050601       0.13805640 </v>
    <v>       0.00000000       0.65742560       0.78741053 </v>
    <v>       0.50000000       0.34257440       0.28741053 </v>
    <v>       0.25592372       0.18653704       0.80121636 </v>
    <v>       0.24407628       0.81346296       0.30121636 </v>
    <v>       0.75592372       0.81346296       0.30121636 </v>
    <v>       0.74407628       0.18653704       0.80121636 </v>
   </varray>
  </structure>
  <varray name="forces" >
   <v>       0.00000000       0.00125209       0.02323973 </v>
   <v>       0.00000000      -0.00125209       0.02323973 </v>
   <v>      -0.03678319      -0.16095325       0.31697094 </v>
   <v>       0.03678319       0.16095325       0.31697094 </v>
   <v>      -0.03678319       0.16095325       0.31697094 </v>
   <v>       0.03678319      -0.16095325       0.31697094 </v>
   <v>       0.00000000      -0.18031806      -0.40509003 </v>
   <v>       0.00000000       0.18031806      -0.40509003 </v>
   <v>       0.00000000       0.31059594      -0.06681352 </v>
   <v>       0.00000000      -0.31059594      -0.06681352 </v>
   <v>       0.00000000      -0.21940821       0.09259674 </v>
   <v>       0.00000000       0.21940821       0.09259674 </v>
   <v>      -0.03247626      -0.23578898      -0.13893740 </v>
   <v>       0.03247626       0.23578898      -0.13893740 </v>
   <v>      -0.03247626       0.23578898      -0.13893740 </v>
   <v>       0.03247626      -0.23578898      -0.13893740 </v>
  </varray>
  <varray name="stress" >
   <v>      12.07503357       0.00000000       0.00000000 </v>
   <v>       0.00000000     -10.02975752       0.00000000 </v>
   <v>       0.00000000       0.00000000       3.00269961 </v>
  </varray>
  <energy>
   <i name="e_fr_energy">    -77.23643584 </i>
   <i name="e_wo_entrp">    -77.23643584 </i>
   <i name="e_0_energy">      0.00000000 </i>
  </energy>
  <time name="totalsc">    2.87    2.89</time>
  <eigenvalues>
   <array>
    <dimension dim="1">band</dimension>
    <dimension dim="2">kpoint</dimension>
    <dimension dim="3">spin</dimension>
    <field>eigene</field>
    <field>occ</field>
    <set>
     <set comment="spin 1">
      <set comment="kpoint 1">
       <r>  -41.2476    1.0000 </r>
       <r>  -41.2475    1.0000 </r>
       <r>  -40.6428    1.0000 </r>
       <r>  -40.6421    1.0000 </r>
       <r>  -40.6418    1.0000 </r>
       <r>  -40.6411    1.0000 </r>
       <r>  -12.6435    1.0000 </r>
       <r>  -12.4755    1.0000 </r>
       <r>   -9.5747    1.0000 </r>
       <r>   -9.5241    1.0000 </r>
       <r>   -9.4529    1.0000 </r>
       <r>   -9.4298    1.0000 </r>
       <r>   -9.3641    1.0000 </r>
       <r>   -9.2847    1.0000 </r>
       <r>   -5.6637    1.0000 </r>
       <r>   -5.0751    1.0000 </r>
       <r>   -2.6533    1.0000 </r>
       <r>   -2.6452    1.0000 </r>
       <r>   -2.5760    1.0000 </r>
       <r>   -2.2105    1.0000 </r>
       <r>   -2.1772    1.0000 </r>
       <r>   -2.1626    1.0000 </r>
       <r>    0.0044    1.0000 </r>
       <r>    0.0815    1.0000 </r>
       <r>    0.2188    1.0000 </r>
       <r>    0.2258    1.0000 </r>
       <r>    0.3558    1.0000 </r>
       <r>    0.5533    1.0000 </r>
       <r>    0.5706    1.0000 </r>
       <r>    0.9913    1.0000 </r>
       <r>    1.3778    1.0000 </r>
       <r>    1.4135    1.0000 </r>
       <r>    1.7411    1.0000 </r>
       <r>    1.7958    1.0000 </r>
       <r>    1.8805    1.0000 </r>
       <r>    1.8994    1.0000 </r>
       <r>    1.9114    1.0000 </r>
       <r>    2.0109    1.0000 </r>
       <r>    5.7347    0.0000 </r>
       <r>    5.7742    0.0000 </r>
       <r>    5.9973    0.0000 </r>
       <r>    6.1789    0.0000 </r>
       <r>    6.4127    0.0000 </r>
       <r>    7.1366    0.0000 </r>
       <r>    7.2776    0.0000 </r>
       <r>    7.3120    0.0000 </r>
       <r>    7.9881    0.0000 </r>
       <r>    8.1325    0.0000 </r>
      </set>
      <set comment="kpoint 2">
       <r>  -41.2476    1.0000 </r>
       <r>  -41.2475    1.0000 </r>
       <r>  -40.6425    1.0000 </r>
       <r>  -40.6421    1.0000 </r>
       <r>  -40.6418    1.0000 </r>
       <r>  -40.6413    1.0000 </r>
       <r>  -12.6027    1.0000 </r>
       <r>  -12.5187    1.0000 </r>
       <r>   -9.5575    1.0000 </r>
       <r>   -9.4970    1.0000 </r>
       <r>   -9.4523    1.0000 </r>
       <r>   -9.4451    1.0000 </r>
       <r>   -9.3858    1.0000 </r>
       <r>   -9.3081    1.0000 </r>
       <r>   -5.4844    1.0000 </r>
       <r>   -5.1904    1.0000 </r>
       <r>   -2.7023    1.0000 </r>
       <r>   -2.6793    1.0000 </r>
       <r>   -2.5385    1.0000 </r>
       <r>   -2.3079    1.0000 </r>
       <r>   -2.1654    1.0000 </r>
       <r>   -2.1195    1.0000 </r>
       <r>   -0.0814    1.0000 </r>
       <r>   -0.0333    1.0000 </r>
       <r>    0.2458    1.0000 </r>
       <r>    0.4551    1.0000 </r>
       <r>    0.4611    1.0000 </r>
       <r>    0.6746    1.0000 </r>
       <r>    0.9084    1.0000 </r>
       <r>    1.0390    1.0000 </r>
       <r>    1.2187    1.0000 </r>
       <r>    1.4462    1.0000 </r>
       <r>    1.5355    1.0000 </r>
       <r>    1.5851    1.0000 </r>
       <r>    1.6660    1.0000 </r>
       <r>    1.7756    1.0000 </r>
       <r>    1.8328    1.0000 </r>
       <r>    1.8832    1.0000 </r>
       <r>    5.9592    0.0000 </r>
       <r>    6.0819    0.0000 </r>
       <r>    6.2464    0.0000 </r>
       <r>    6.3589    0.0000 </r>
       <r>    6.6686    0.0000 </r>
       <r>    6.7677    0.0000 </r>
       <r>    7.1240    0.0000 </r>
       <r>    7.1809    0.0000 </r>
       <r>    8.1103    0.0000 </r>
       <r>    8.6955    0.0000 </r>
      </set>
      <set comment="kpoint 3">
       <r>  -41.2476    1.0000 </r>
       <r>  -41.2475    1.0000 </r>
       <r>  -40.6427    1.0000 </r>
       <r>  -40.6421    1.0000 </r>
       <r>  -40.6418    1.0000 </r>
       <r>  -40.6411    1.0000 </r>
       <r>  -12.5927    1.0000 </r>
       <r>  -12.4964    1.0000 </r>
       <r>   -9.6451    1.0000 </r>
       <r>   -9.5478    1.0000 </r>
       <r>   -9.4312    1.0000 </r>
       <r>   -9.4253    1.0000 </r>
       <r>   -9.3921    1.0000 </r>
       <r>   -9.3268    1.0000 </r>
       <r>   -5.4547    1.0000 </r>
       <r>   -5.1462    1.0000 </r>
       <r>   -2.7114    1.0000 </r>
       <r>   -2.5107    1.0000 </r>
       <r>   -2.3368    1.0000 </r>
       <r>   -2.2858    1.0000 </r>
       <r>   -2.1395    1.0000 </r>
       <r>   -2.1222    1.0000 </r>
       <r>   -0.1225    1.0000 </r>
       <r>    0.0181    1.0000 </r>
       <r>    0.0586    1.0000 </r>
       <r>    0.2060    1.0000 </r>
       <r>    0.3999    1.0000 </r>
       <r>    0.6826    1.0000 </r>
       <r>    0.9055    1.0000 </r>
       <r>    1.0347    1.0000 </r>
       <r>    1.2147    1.0000 </r>
       <r>    1.4345    1.0000 </r>
       <r>    1.5145    1.0000 </r>
       <r>    1.5887    1.0000 </r>
       <r>    1.6183    1.0000 </r>
       <r>    1.7741    1.0000 </r>
       <r>    1.9735    1.0000 </r>
       <r>    2.2005    1.0000 </r>
       <r>    5.0681    0.0000 </r>
       <r>    5.9475    0.0000 </r>
       <r>    6.2528    0.0000 </r>
       <r>    6.5116    0.0000 </r>
       <r>    6.6361    0.0000 </r>
       <r>    6.9931    0.0000 </r>
       <r>    7.1476    0.0000 </r>
       <r>    7.1650    0.0000 </r>
       <r>    8.0623    0.0000 </r>
       <r>    8.5408    0.0000 </r>
      </set>
      <set comment="kpoint 4">
       <r>  -41.2475    1.0000 </r>
       <r>  -41.2475    1.0000 </r>
       <r>  -40.6425    1.0000 </r>
       <r>  -40.6421    1.0000 </r>
       <r>  -40.6417    1.0000 </r>
       <r>  -40.6413    1.0000 </r>
       <r>  -12.5677    1.0000 </r>
       <r>  -12.5195    1.0000 </r>
       <r>   -9.6576    1.0000 </r>
       <r>   -9.6067    1.0000 </r>
       <r>   -9.4301    1.0000 </r>
       <r>   -9.3991    1.0000 </r>
       <r>   -9.3601    1.0000 </r>
       <r>   -9.3289    1.0000 </r>
       <r>   -5.3397    1.0000 </r>
       <r>   -5.1851    1.0000 </r>
       <r>   -2.6654    1.0000 </r>
       <r>   -2.5337    1.0000 </r>
       <r>   -2.4116    1.0000 </r>
       <r>   -2.3040    1.0000 </r>
       <r>   -2.1398    1.0000 </r>
       <r>   -2.1155    1.0000 </r>
       <r>   -0.1549    1.0000 </r>
       <r>   -0.1078    1.0000 </r>
       <r>    0.0508    1.0000 </r>
       <r>    0.3156    1.0000 </r>
       <r>    0.5467    1.0000 </r>
       <r>    0.7689    1.0000 </r>
       <r>    0.9276    1.0000 </r>
       <r>    0.9814    1.0000 </r>
       <r>    1.1204    1.0000 </r>
       <r>    1.2862    1.0000 </r>
       <r>    1.3453    1.0000 </r>
       <r>    1.4955    1.0000 </r>
       <r>    1.7191    1.0000 </r>
       <r>    1.8303    1.0000 </r>
       <r>    1.9823    1.0000 </r>
       <r>    2.0561    1.0000 </r>
       <r>    5.5326    0.0000 </r>
       <r>    6.0124    0.0000 </r>
       <r>    6.4156    0.0000 </r>
       <r>    6.5708    0.0000 </r>
       <r>    6.7947    0.0000 </r>
       <r>    6.8409    0.0000 </r>
       <r>    7.0704    0.0000 </r>
       <r>    7.1758    0.0000 </r>
       <r>    8.3236    0.0000 </r>
       <r>    8.5234    0.0000 </r>
      </set>
      <set comment="kpoint 5">
       <r>  -41.2475    1.0000 </r>
       <r>  -41.2475    1.0000 </r>
       <r>  -40.6426    1.0000 </r>
       <r>  -40.6423    1.0000 </r>
       <r>  -40.6416    1.0000 </r>
       <r>  -40.6413    1.0000 </r>
       <r>  -12.5732    1.0000 </r>
       <r>  -12.4861    1.0000 </r>
       <r>   -9.5807    1.0000 </r>
       <r>   -9.5239    1.0000 </r>
       <r>   -9.5008    1.0000 </r>
       <r>   -9.4581    1.0000 </r>
       <r>   -9.4187    1.0000 </r>
       <r>   -9.4034    1.0000 </r>
       <r>   -5.4704    1.0000 </r>
       <r>   -5.1435    1.0000 </r>
       <r>   -2.5077    1.0000 </r>
       <r>   -2.3939    1.0000 </r>
       <r>   -2.2229    1.0000 </r>
       <r>   -2.1876    1.0000 </r>
       <r>   -2.1521    1.0000 </r>
       <r>   -2.0474    1.0000 </r>
       <r>   -0.2272    1.0000 </r>
       <r>   -0.1417    1.0000 </r>
       <r>   -0.0948    1.0000 </r>
       <r>   -0.0468    1.0000 </r>
       <r>    0.3673    1.0000 </r>
       <r>    0.7731    1.0000 </r>
       <r>    0.8581    1.0000 </r>
       <r>    1.0534    1.0000 </r>
       <r>    1.1290    1.0000 </r>
       <r>    1.4969    1.0000 </r>
       <r>    1.5795    1.0000 </r>
       <r>    1.7389    1.0000 </r>
       <r>    1.7563    1.0000 </r>
       <r>    1.8986    1.0000 </r>
       <r>    1.9831    1.0000 </r>
       <r>    2.0928    1.0000 </r>
       <r>    5.1246    0.0000 </r>
       <r>    5.5641    0.0000 </r>
       <r>    6.0272    0.0000 </r>
       <r>    6.5062    0.0000 </r>
       <r>    6.8240    0.0000 </r>
       <r>    6.8676    0.0000 </r>
       <r>    7.0354    0.0000 </r>
       <r>    7.2952    0.0000 </r>
       <r>    8.2630    0.0000 </r>
       <r>    8.5987    0.0000 </r>
      </set>
      <set comment="kpoint 6">
       <r>  -41.2475    1.0000 </r>
       <r>  -41.2475    1.0000 </r>
       <r>  -40.6423    1.0000 </r>
       <r>  -40.6420    1.0000 </r>
       <r>  -40.6418    1.0000 </r>
       <r>  -40.6415    1.0000 </r>
       <r>  -12.5503    1.0000 </r>
       <r>  -12.5066    1.0000 </r>
       <r>   -9.6308    1.0000 </r>
       <r>   -9.5830    1.0000 </r>
       <r>   -9.4762    1.0000 </r>
       <r>   -9.4418    1.0000 </r>
       <r>   -9.4018    1.0000 </r>
       <r>   -9.3646    1.0000 </r>
       <r>   -5.3563    1.0000 </r>
       <r>   -5.1924    1.0000 </r>
       <r>   -2.5187    1.0000 </r>
       <r>   -2.4604    1.0000 </r>
       <r>   -2.2269    1.0000 </r>
       <r>   -2.2133    1.0000 </r>
       <r>   -2.0959    1.0000 </r>
       <r>   -2.0375    1.0000 </r>
       <r>   -0.2210    1.0000 </r>
       <r>   -0.1543    1.0000 </r>
       <r>    0.0832    1.0000 </r>
       <r>    0.1442    1.0000 </r>
       <r>    0.2272    1.0000 </r>
       <r>    0.5524    1.0000 </r>
       <r>    0.9319    1.0000 </r>
       <r>    0.9564    1.0000 </r>
       <r>    1.1565    1.0000 </r>
       <r>    1.2559    1.0000 </r>
       <r>    1.5580    1.0000 </r>
       <r>    1.6651    1.0000 </r>
       <r>    1.7435    1.0000 </r>
       <r>    1.9267    1.0000 </r>
       <r>    1.9329    1.0000 </r>
       <r>    1.9954    1.0000 </r>
       <r>    5.4835    0.0000 </r>
       <r>    5.8150    0.0000 </r>
       <r>    6.5073    0.0000 </r>
       <r>    6.5742    0.0000 </r>
       <r>    6.8197    0.0000 </r>
       <r>    6.8310    0.0000 </r>
       <r>    7.1600    0.0000 </r>
       <r>    7.2906    0.0000 </r>
       <r>    8.1581    0.0000 </r>
       <r>    8.5373    0.0000 </r>
      </set>
      <set comment="kpoint 7">
       <r>  -41.2475    1.0000 </r>
       <r>  -41.2475    1.0000 </r>
       <r>  -40.6426    1.0000 </r>
       <r>  -40.6423    1.0000 </r>
       <r>  -40.6417    1.0000 </r>
       <r>  -40.6413    1.0000 </r>
       <r>  -12.5380    1.0000 </r>
       <r>  -12.4880    1.0000 </r>
       <r>   -9.6401    1.0000 </r>
       <r>   -9.5579    1.0000 </r>
       <r>   -9.5096    1.0000 </r>
       <r>   -9.4591    1.0000 </r>
       <r>   -9.4317    1.0000 </r>
       <r>   -9.4243    1.0000 </r>
       <r>   -5.3239    1.0000 </r>
       <r>   -5.1534    1.0000 </r>
       <r>   -2.3507    1.0000 </r>
       <r>   -2.2843    1.0000 </r>
       <r>   -2.2209    1.0000 </r>
       <r>   -2.1864    1.0000 </r>
       <r>   -2.1532    1.0000 </r>
       <r>   -2.0647    1.0000 </r>
       <r>   -0.1726    1.0000 </r>
       <r>   -0.0310    1.0000 </r>
       <r>    0.0100    1.0000 </r>
       <r>    0.0780    1.0000 </r>
       <r>    0.3324    1.0000 </r>
       <r>    0.5796    1.0000 </r>
       <r>    0.8585    1.0000 </r>
       <r>    0.9451    1.0000 </r>
       <r>    1.1363    1.0000 </r>
       <r>    1.2275    1.0000 </r>
       <r>    1.5734    1.0000 </r>
       <r>    1.6186    1.0000 </r>
       <r>    1.6877    1.0000 </r>
       <r>    1.9386    1.0000 </r>
       <r>    1.9592    1.0000 </r>
       <r>    2.0149    1.0000 </r>
       <r>    5.0218    0.0000 </r>
       <r>    5.3059    0.0000 </r>
       <r>    6.3650    0.0000 </r>
       <r>    6.5240    0.0000 </r>
       <r>    6.6723    0.0000 </r>
       <r>    6.7583    0.0000 </r>
       <r>    6.8404    0.0000 </r>
       <r>    6.9741    0.0000 </r>
       <r>    8.1575    0.0000 </r>
       <r>    8.6009    0.0000 </r>
      </set>
      <set comment="kpoint 8">
       <r>  -41.2475    1.0000 </r>
       <r>  -41.2475    1.0000 </r>
       <r>  -40.6424    1.0000 </r>
       <r>  -40.6421    1.0000 </r>
       <r>  -40.6418    1.0000 </r>
       <r>  -40.6415    1.0000 </r>
       <r>  -12.5241    1.0000 </r>
       <r>  -12.4990    1.0000 </r>
       <r>   -9.6211    1.0000 </r>
       <r>   -9.5770    1.0000 </r>
       <r>   -9.5424    1.0000 </r>
       <r>   -9.4783    1.0000 </r>
       <r>   -9.4214    1.0000 </r>
       <r>   -9.4056    1.0000 </r>
       <r>   -5.2278    1.0000 </r>
       <r>   -5.1419    1.0000 </r>
       <r>   -2.4258    1.0000 </r>
       <r>   -2.3684    1.0000 </r>
       <r>   -2.1807    1.0000 </r>
       <r>   -2.1727    1.0000 </r>
       <r>   -2.0629    1.0000 </r>
       <r>   -2.0198    1.0000 </r>
       <r>   -0.2997    1.0000 </r>
       <r>   -0.2059    1.0000 </r>
       <r>   -0.1024    1.0000 </r>
       <r>    0.0911    1.0000 </r>
       <r>    0.4747    1.0000 </r>
       <r>    0.5808    1.0000 </r>
       <r>    0.8345    1.0000 </r>
       <r>    0.9570    1.0000 </r>
       <r>    1.0237    1.0000 </r>
       <r>    1.1662    1.0000 </r>
       <r>    1.5042    1.0000 </r>
       <r>    1.5833    1.0000 </r>
       <r>    1.7437    1.0000 </r>
       <r>    1.8420    1.0000 </r>
       <r>    2.0172    1.0000 </r>
       <r>    2.1204    1.0000 </r>
       <r>    5.3133    0.0000 </r>
       <r>    5.5707    0.0000 </r>
       <r>    6.4824    0.0000 </r>
       <r>    6.5545    0.0000 </r>
       <r>    6.7155    0.0000 </r>
       <r>    6.9040    0.0000 </r>
       <r>    7.0683    0.0000 </r>
       <r>    7.1643    0.0000 </r>
       <r>    8.2377    0.0000 </r>
       <r>    8.4495    0.0000 </r>
      </set>
     </set>
    </set>
   </array>
  </eigenvalues>
  <separator name="orbital magnetization" >
   <v name="MAGDIPOLOUT">      0.00000000      0.00000000      0.00000000</v>
  </separator>
  <dos>
   <i name="efermi">      2.26530403 </i>
   <total>
    <array>
     <dimension dim="1">gridpoints</dimension>
     <dimension dim="2">spin</dimension>
     <field>energy</field>
     <field>total</field>
     <field>integrated</field>
     <set>
      <set comment="spin 1">
       <r>   -43.7447     0.0000     0.0000 </r>
       <r>   -43.5616     0.0000     0.0000 </r>
       <r>   -43.3785     0.0000     0.0000 </r>
       <r>   -43.1954     0.0000     0.0000 </r>
       <r>   -43.0122     0.0000     0.0000 </r>
       <r>   -42.8291     0.0000     0.0000 </r>
       <r>   -42.6460     0.0000     0.0000 </r>
       <r>   -42.4629     0.0000     0.0000 </r>
       <r>   -42.2797     0.0000     0.0000 </r>
       <r>   -42.0966     0.0000     0.0000 </r>
       <r>   -41.9135     0.0000     0.0000 </r>
       <r>   -41.7304     0.0000     0.0000 </r>
       <r>   -41.5472     0.0000     0.0000 </r>
       <r>   -41.3641     0.0000     0.0000 </r>
       <r>   -41.1810     0.0000     4.0000 </r>
       <r>   -40.9979     0.0000     4.0000 </r>
       <r>   -40.8147     0.0000     4.0000 </r>
       <r>   -40.6316     0.0000    12.0000 </r>
       <r>   -40.4485     0.0000    12.0000 </r>
       <r>   -40.2654     0.0000    12.0000 </r>
       <r>   -40.0822     0.0000    12.0000 </r>
       <r>   -39.8991     0.0000    12.0000 </r>
       <r>   -39.7160     0.0000    12.0000 </r>
       <r>   -39.5329     0.0000    12.0000 </r>
       <r>   -39.3497     0.0000    12.0000 </r>
       <r>   -39.1666     0.0000    12.0000 </r>
       <r>   -38.9835     0.0000    12.0000 </r>
       <r>   -38.8004     0.0000    12.0000 </r>
       <r>   -38.6172     0.0000    12.0000 </r>
       <r>   -38.4341     0.0000    12.0000 </r>
       <r>   -38.2510     0.0000    12.0000 </r>
       <r>   -38.0679     0.0000    12.0000 </r>
       <r>   -37.8847     0.0000    12.0000 </r>
       <r>   -37.7016     0.0000    12.0000 </r>
       <r>   -37.5185     0.0000    12.0000 </r>
       <r>   -37.3354     0.0000    12.0000 </r>
       <r>   -37.1523     0.0000    12.0000 </r>
       <r>   -36.9691     0.0000    12.0000 </r>
       <r>   -36.7860     0.0000    12.0000 </r>
       <r>   -36.6029     0.0000    12.0000 </r>
       <r>   -36.4198     0.0000    12.0000 </r>
       <r>   -36.2366     0.0000    12.0000 </r>
       <r>   -36.0535     0.0000    12.0000 </r>
       <r>   -35.8704     0.0000    12.0000 </r>
       <r>   -35.6873     0.0000    12.0000 </r>
       <r>   -35.5041     0.0000    12.0000 </r>
       <r>   -35.3210     0.0000    12.0000 </r>
       <r>   -35.1379     0.0000    12.0000 </r>
       <r>   -34.9548     0.0000    12.0000 </r>
       <r>   -34.7716     0.0000    12.0000 </r>
       <r>   -34.5885     0.0000    12.0000 </r>
       <r>   -34.4054     0.0000    12.0000 </r>
       <r>   -34.2223     0.0000    12.0000 </r>
       <r>   -34.0391     0.0000    12.0000 </r>
       <r>   -33.8560     0.0000    12.0000 </r>
       <r>   -33.6729     0.0000    12.0000 </r>
       <r>   -33.4898     0.0000    12.0000 </r>
       <r>   -33.3066     0.0000    12.0000 </r>
       <r>   -33.1235     0.0000    12.0000 </r>
       <r>   -32.9404     0.0000    12.0000 </r>
       <r>   -32.7573     0.0000    12.0000 </r>
       <r>   -32.5741     0.0000    12.0000 </r>
       <r>   -32.3910     0.0000    12.0000 </r>
       <r>   -32.2079     0.0000    12.0000 </r>
       <r>   -32.0248     0.0000    12.0000 </r>
       <r>   -31.8416     0.0000    12.0000 </r>
       <r>   -31.6585     0.0000    12.0000 </r>
       <r>   -31.4754     0.0000    12.0000 </r>
       <r>   -31.2923     0.0000    12.0000 </r>
       <r>   -31.1091     0.0000    12.0000 </r>
       <r>   -30.9260     0.0000    12.0000 </r>
       <r>   -30.7429     0.0000    12.0000 </r>
       <r>   -30.5598     0.0000    12.0000 </r>
       <r>   -30.3766     0.0000    12.0000 </r>
       <r>   -30.1935     0.0000    12.0000 </r>
       <r>   -30.0104     0.0000    12.0000 </r>
       <r>   -29.8273     0.0000    12.0000 </r>
       <r>   -29.6441     0.0000    12.0000 </r>
       <r>   -29.4610     0.0000    12.0000 </r>
       <r>   -29.2779     0.0000    12.0000 </r>
       <r>   -29.0948     0.0000    12.0000 </r>
       <r>   -28.9116     0.0000    12.0000 </r>
       <r>   -28.7285     0.0000    12.0000 </r>
       <r>   -28.5454     0.0000    12.0000 </r>
       <r>   -28.3623     0.0000    12.0000 </r>
       <r>   -28.1791     0.0000    12.0000 </r>
       <r>   -27.9960     0.0000    12.0000 </r>
       <r>   -27.8129     0.0000    12.0000 </r>
       <r>   -27.6298     0.0000    12.0000 </r>
       <r>   -27.4467     0.0000    12.0000 </r>
       <r>   -27.2635     0.0000    12.0000 </r>
       <r>   -27.0804     0.0000    12.0000 </r>
       <r>   -26.8973     0.0000    12.0000 </r>
       <r>   -26.7142     0.0000    12.0000 </r>
       <r>   -26.5310     0.0000    12.0000 </r>
       <r>   -26.3479     0.0000    12.0000 </r>
       <r>   -26.1648     0.0000    12.0000 </r>
       <r>   -25.9817     0.0000    12.0000 </r>
       <r>   -25.7985     0.0000    12.0000 </r>
       <r>   -25.6154     0.0000    12.0000 </r>
       <r>   -25.4323     0.0000    12.0000 </r>
       <r>   -25.2492     0.0000    12.0000 </r>
       <r>   -25.0660     0.0000    12.0000 </r>
       <r>   -24.8829     0.0000    12.0000 </r>
       <r>   -24.6998     0.0000    12.0000 </r>
       <r>   -24.5167     0.0000    12.0000 </r>
       <r>   -24.3335     0.0000    12.0000 </r>
       <r>   -24.1504     0.0000    12.0000 </r>
       <r>   -23.9673     0.0000    12.0000 </r>
       <r>   -23.7842     0.0000    12.0000 </r>
       <r>   -23.6010     0.0000    12.0000 </r>
       <r>   -23.4179     0.0000    12.0000 </r>
       <r>   -23.2348     0.0000    12.0000 </r>
       <r>   -23.0517     0.0000    12.0000 </r>
       <r>   -22.8685     0.0000    12.0000 </r>
       <r>   -22.6854     0.0000    12.0000 </r>
       <r>   -22.5023     0.0000    12.0000 </r>
       <r>   -22.3192     0.0000    12.0000 </r>
       <r>   -22.1360     0.0000    12.0000 </r>
       <r>   -21.9529     0.0000    12.0000 </r>
       <r>   -21.7698     0.0000    12.0000 </r>
       <r>   -21.5867     0.0000    12.0000 </r>
       <r>   -21.4035     0.0000    12.0000 </r>
       <r>   -21.2204     0.0000    12.0000 </r>
       <r>   -21.0373     0.0000    12.0000 </r>
       <r>   -20.8542     0.0000    12.0000 </r>
       <r>   -20.6710     0.0000    12.0000 </r>
       <r>   -20.4879     0.0000    12.0000 </r>
       <r>   -20.3048     0.0000    12.0000 </r>
       <r>   -20.1217     0.0000    12.0000 </r>
       <r>   -19.9385     0.0000    12.0000 </r>
       <r>   -19.7554     0.0000    12.0000 </r>
       <r>   -19.5723     0.0000    12.0000 </r>
       <r>   -19.3892     0.0000    12.0000 </r>
       <r>   -19.2060     0.0000    12.0000 </r>
       <r>   -19.0229     0.0000    12.0000 </r>
       <r>   -18.8398     0.0000    12.0000 </r>
       <r>   -18.6567     0.0000    12.0000 </r>
       <r>   -18.4735     0.0000    12.0000 </r>
       <r>   -18.2904     0.0000    12.0000 </r>
       <r>   -18.1073     0.0000    12.0000 </r>
       <r>   -17.9242     0.0000    12.0000 </r>
       <r>   -17.7411     0.0000    12.0000 </r>
       <r>   -17.5579     0.0000    12.0000 </r>
       <r>   -17.3748     0.0000    12.0000 </r>
       <r>   -17.1917     0.0000    12.0000 </r>
       <r>   -17.0086     0.0000    12.0000 </r>
       <r>   -16.8254     0.0000    12.0000 </r>
       <r>   -16.6423     0.0000    12.0000 </r>
       <r>   -16.4592     0.0000    12.0000 </r>
       <r>   -16.2761     0.0000    12.0000 </r>
       <r>   -16.0929     0.0000    12.0000 </r>
       <r>   -15.9098     0.0000    12.0000 </r>
       <r>   -15.7267     0.0000    12.0000 </r>
       <r>   -15.5436     0.0000    12.0000 </r>
       <r>   -15.3604     0.0000    12.0000 </r>
       <r>   -15.1773     0.0000    12.0000 </r>
       <r>   -14.9942     0.0000    12.0000 </r>
       <r>   -14.8111     0.0000    12.0000 </r>
       <r>   -14.6279     0.0000    12.0000 </r>
       <r>   -14.4448     0.0000    12.0000 </r>
       <r>   -14.2617     0.0000    12.0000 </r>
       <r>   -14.0786     0.0000    12.0000 </r>
       <r>   -13.8954     0.0000    12.0000 </r>
       <r>   -13.7123     0.0000    12.0000 </r>
       <r>   -13.5292     0.0000    12.0000 </r>
       <r>   -13.3461     0.0000    12.0000 </r>
       <r>   -13.1629     0.0000    12.0000 </r>
       <r>   -12.9798     0.0000    12.0000 </r>
       <r>   -12.7967     0.0000    12.0000 </r>
       <r>   -12.6136     2.3499    12.0235 </r>
       <r>   -12.4304     0.0000    16.0000 </r>
       <r>   -12.2473     0.0000    16.0000 </r>
       <r>   -12.0642     0.0000    16.0000 </r>
       <r>   -11.8811     0.0000    16.0000 </r>
       <r>   -11.6979     0.0000    16.0000 </r>
       <r>   -11.5148     0.0000    16.0000 </r>
       <r>   -11.3317     0.0000    16.0000 </r>
       <r>   -11.1486     0.0000    16.0000 </r>
       <r>   -10.9654     0.0000    16.0000 </r>
       <r>   -10.7823     0.0000    16.0000 </r>
       <r>   -10.5992     0.0000    16.0000 </r>
       <r>   -10.4161     0.0000    16.0000 </r>
       <r>   -10.2329     0.0000    16.0000 </r>
       <r>   -10.0498     0.0000    16.0000 </r>
       <r>    -9.8667     0.0000    16.0000 </r>
       <r>    -9.6836     0.0000    16.0000 </r>
       <r>    -9.5004    23.1961    20.7755 </r>
       <r>    -9.3173     6.4178    27.9418 </r>
       <r>    -9.1342     0.0000    28.0000 </r>
       <r>    -8.9511     0.0000    28.0000 </r>
       <r>    -8.7679     0.0000    28.0000 </r>
       <r>    -8.5848     0.0000    28.0000 </r>
       <r>    -8.4017     0.0000    28.0000 </r>
       <r>    -8.2186     0.0000    28.0000 </r>
       <r>    -8.0355     0.0000    28.0000 </r>
       <r>    -7.8523     0.0000    28.0000 </r>
       <r>    -7.6692     0.0000    28.0000 </r>
       <r>    -7.4861     0.0000    28.0000 </r>
       <r>    -7.3030     0.0000    28.0000 </r>
       <r>    -7.1198     0.0000    28.0000 </r>
       <r>    -6.9367     0.0000    28.0000 </r>
       <r>    -6.7536     0.0000    28.0000 </r>
       <r>    -6.5705     0.0000    28.0000 </r>
       <r>    -6.3873     0.0000    28.0000 </r>
       <r>    -6.2042     0.0000    28.0000 </r>
       <r>    -6.0211     0.0000    28.0000 </r>
       <r>    -5.8380     0.0000    28.0000 </r>
       <r>    -5.6548     0.0042    28.0000 </r>
       <r>    -5.4717     2.2004    28.1268 </r>
       <r>    -5.2886     8.9329    29.5395 </r>
       <r>    -5.1055     1.4031    31.9858 </r>
       <r>    -4.9223     0.0000    32.0000 </r>
       <r>    -4.7392     0.0000    32.0000 </r>
       <r>    -4.5561     0.0000    32.0000 </r>
       <r>    -4.3730     0.0000    32.0000 </r>
       <r>    -4.1898     0.0000    32.0000 </r>
       <r>    -4.0067     0.0000    32.0000 </r>
       <r>    -3.8236     0.0000    32.0000 </r>
       <r>    -3.6405     0.0000    32.0000 </r>
       <r>    -3.4573     0.0000    32.0000 </r>
       <r>    -3.2742     0.0000    32.0000 </r>
       <r>    -3.0911     0.0000    32.0000 </r>
       <r>    -2.9080     0.0000    32.0000 </r>
       <r>    -2.7248     0.0000    32.0000 </r>
       <r>    -2.5417     9.3816    33.0327 </r>
       <r>    -2.3586    13.8647    36.1127 </r>
       <r>    -2.1755    19.9974    39.8765 </r>
       <r>    -1.9923     0.0000    44.0000 </r>
       <r>    -1.8092     0.0000    44.0000 </r>
       <r>    -1.6261     0.0000    44.0000 </r>
       <r>    -1.4430     0.0000    44.0000 </r>
       <r>    -1.2598     0.0000    44.0000 </r>
       <r>    -1.0767     0.0000    44.0000 </r>
       <r>    -0.8936     0.0000    44.0000 </r>
       <r>    -0.7105     0.0000    44.0000 </r>
       <r>    -0.5273     0.0000    44.0000 </r>
       <r>    -0.3442     0.0000    44.0000 </r>
       <r>    -0.1611    24.3385    45.9917 </r>
       <r>     0.0220    13.9436    49.1684 </r>
       <r>     0.2052     6.7437    51.3990 </r>
       <r>     0.3883    11.2991    52.7598 </r>
       <r>     0.5714    13.4014    54.1745 </r>
       <r>     0.7545     3.1938    56.0378 </r>
       <r>     0.9377     0.0000    58.0000 </r>
       <r>     1.1208    13.7357    60.9603 </r>
       <r>     1.3039     7.3484    63.2606 </r>
       <r>     1.4870     6.7925    64.4924 </r>
       <r>     1.6701    11.2653    67.8592 </r>
       <r>     1.8533    16.6977    70.8815 </r>
       <r>     2.0364    13.1523    74.6080 </r>
       <r>     2.2195     0.0000    76.0000 </r>
       <r>     2.4026     0.0000    76.0000 </r>
       <r>     2.5858     0.0000    76.0000 </r>
       <r>     2.7689     0.0000    76.0000 </r>
       <r>     2.9520     0.0000    76.0000 </r>
       <r>     3.1351     0.0000    76.0000 </r>
       <r>     3.3183     0.0000    76.0000 </r>
       <r>     3.5014     0.0000    76.0000 </r>
       <r>     3.6845     0.0000    76.0000 </r>
       <r>     3.8676     0.0000    76.0000 </r>
       <r>     4.0508     0.0000    76.0000 </r>
       <r>     4.2339     0.0000    76.0000 </r>
       <r>     4.4170     0.0000    76.0000 </r>
       <r>     4.6001     0.0000    76.0000 </r>
       <r>     4.7833     0.0000    76.0000 </r>
       <r>     4.9664     0.0000    76.0000 </r>
       <r>     5.1495     2.9515    76.2678 </r>
       <r>     5.3326     5.0653    76.9594 </r>
       <r>     5.5158     4.8578    77.9427 </r>
       <r>     5.6989     4.6465    78.8720 </r>
       <r>     5.8820     3.2487    79.6187 </r>
       <r>     6.0651     0.7424    80.0108 </r>
       <r>     6.2483     2.4078    80.2702 </r>
       <r>     6.4314    11.9754    81.4800 </r>
       <r>     6.6145     1.3239    84.0891 </r>
       <r>     6.7976    15.3266    86.0166 </r>
       <r>     6.9808     6.0873    88.2194 </r>
       <r>     7.1639     8.6605    90.5572 </r>
       <r>     7.3470     0.0000    92.0000 </r>
       <r>     7.5301     0.0000    92.0000 </r>
       <r>     7.7133     0.0000    92.0000 </r>
       <r>     7.8964     0.0000    92.0000 </r>
       <r>     8.0795     2.0294    92.0576 </r>
       <r>     8.2626     5.8839    93.7974 </r>
       <r>     8.4458     1.1626    94.1214 </r>
       <r>     8.6289     1.7719    95.9512 </r>
       <r>     8.8120     0.0000    96.0000 </r>
       <r>     8.9951     0.0000    96.0000 </r>
       <r>     9.1783     0.0000    96.0000 </r>
       <r>     9.3614     0.0000    96.0000 </r>
       <r>     9.5445     0.0000    96.0000 </r>
       <r>     9.7276     0.0000    96.0000 </r>
       <r>     9.9108     0.0000    96.0000 </r>
       <r>    10.0939     0.0000    96.0000 </r>
       <r>    10.2770     0.0000    96.0000 </r>
       <r>    10.4601     0.0000    96.0000 </r>
       <r>    10.6433     0.0000    96.0000 </r>
       <r>    10.8264     0.0000    96.0000 </r>
       <r>    11.0095     0.0000    96.0000 </r>
       <r>    11.1926     0.0000    96.0000 </r>
      </set>
     </set>
    </array>
   </total>
  </dos>
 </calculation>
 <structure name="finalpos" >
  <crystal>
   <varray name="basis" >
    <v>       7.58022417       0.00000000       0.00000000 </v>
    <v>       0.00000000       6.33347261       0.00000000 </v>
    <v>       0.00000000       0.00000000       6.01079077 </v>
   </varray>
   <i name="volume">    288.57290863 </i>
   <varray name="rec_basis" >
    <v>       0.13192222       0.00000000       0.00000000 </v>
    <v>       0.00000000       0.15789126       0.00000000 </v>
    <v>       0.00000000       0.00000000       0.16636746 </v>
   </varray>
  </crystal>
  <varray name="positions" >
   <v>       0.00000000       0.31932307       0.30035326 </v>
   <v>       0.50000000       0.68067693       0.80035326 </v>
   <v>       0.22019414       0.17645979       0.17830827 </v>
   <v>       0.27980586       0.82354021       0.67830827 </v>
   <v>       0.72019414       0.82354021       0.67830827 </v>
   <v>       0.77980586       0.17645979       0.17830827 </v>
   <v>       0.00000000       0.62819947       0.20803276 </v>
   <v>       0.50000000       0.37180053       0.70803276 </v>
   <v>       0.00000000       0.28949399       0.63805640 </v>
   <v>       0.50000000       0.71050601       0.13805640 </v>
   <v>       0.00000000       0.65742560       0.78741053 </v>
   <v>       0.50000000       0.34257440       0.28741053 </v>
   <v>       0.25592372       0.18653704       0.80121636 </v>
   <v>       0.24407628       0.81346296       0.30121636 </v>
   <v>       0.75592372       0.81346296       0.30121636 </v>
   <v>       0.74407628       0.18653704       0.80121636 </v>
  </varray>
 </structure>
</modeling>
