unknown system                          
           1
     7.580224    0.000000    0.000000
     0.000000    6.333473    0.000000
     0.000000    0.000000    6.010791
   P    S    Li
   2   8   6
Direct configuration=     1
   0.00000000  0.31932307  0.30035326
   0.50000000  0.68067693  0.80035326
   0.22019414  0.17645979  0.17830827
   0.27980586  0.82354021  0.67830827
   0.72019414  0.82354021  0.67830827
   0.77980586  0.17645979  0.17830827
   0.00000000  0.62819947  0.20803276
   0.50000000  0.37180053  0.70803276
   0.00000000  0.28949399  0.63805640
   0.50000000  0.71050601  0.13805640
   0.00000000  0.65742560  0.78741053
   0.50000000  0.34257440  0.28741053
   0.25592372  0.18653704  0.80121636
   0.24407628  0.81346296  0.30121636
   0.75592372  0.81346296  0.30121636
   0.74407628  0.18653704  0.80121636
