  16  16   0   0
  0.1771803E+02  0.7785225E-09  0.6141183E-09  0.5929422E-09  0.5000000E-15
  1.000000000000000E-004
  CAR 
 unknown system                          
     11.46232523    -43.95637143  301      2.68769825      1.00000000
    -43.956  0.0000E+00  0.0000E+00
    -43.772  0.0000E+00  0.0000E+00
    -43.587  0.0000E+00  0.0000E+00
    -43.402  0.0000E+00  0.0000E+00
    -43.217  0.0000E+00  0.0000E+00
    -43.033  0.0000E+00  0.0000E+00
    -42.848  0.0000E+00  0.0000E+00
    -42.663  0.0000E+00  0.0000E+00
    -42.479  0.0000E+00  0.0000E+00
    -42.294  0.0000E+00  0.0000E+00
    -42.109  0.0000E+00  0.0000E+00
    -41.924  0.0000E+00  0.0000E+00
    -41.740  0.0000E+00  0.0000E+00
    -41.555  0.0000E+00  0.0000E+00
    -41.370  0.0000E+00  0.4000E+01
    -41.185  0.0000E+00  0.4000E+01
    -41.001  0.0000E+00  0.4000E+01
    -40.816  0.0000E+00  0.4000E+01
    -40.631  0.0000E+00  0.1200E+02
    -40.447  0.0000E+00  0.1200E+02
    -40.262  0.0000E+00  0.1200E+02
    -40.077  0.0000E+00  0.1200E+02
    -39.892  0.0000E+00  0.1200E+02
    -39.708  0.0000E+00  0.1200E+02
    -39.523  0.0000E+00  0.1200E+02
    -39.338  0.0000E+00  0.1200E+02
    -39.153  0.0000E+00  0.1200E+02
    -38.969  0.0000E+00  0.1200E+02
    -38.784  0.0000E+00  0.1200E+02
    -38.599  0.0000E+00  0.1200E+02
    -38.415  0.0000E+00  0.1200E+02
    -38.230  0.0000E+00  0.1200E+02
    -38.045  0.0000E+00  0.1200E+02
    -37.860  0.0000E+00  0.1200E+02
    -37.676  0.0000E+00  0.1200E+02
    -37.491  0.0000E+00  0.1200E+02
    -37.306  0.0000E+00  0.1200E+02
    -37.121  0.0000E+00  0.1200E+02
    -36.937  0.0000E+00  0.1200E+02
    -36.752  0.0000E+00  0.1200E+02
    -36.567  0.0000E+00  0.1200E+02
    -36.382  0.0000E+00  0.1200E+02
    -36.198  0.0000E+00  0.1200E+02
    -36.013  0.0000E+00  0.1200E+02
    -35.828  0.0000E+00  0.1200E+02
    -35.644  0.0000E+00  0.1200E+02
    -35.459  0.0000E+00  0.1200E+02
    -35.274  0.0000E+00  0.1200E+02
    -35.089  0.0000E+00  0.1200E+02
    -34.905  0.0000E+00  0.1200E+02
    -34.720  0.0000E+00  0.1200E+02
    -34.535  0.0000E+00  0.1200E+02
    -34.350  0.0000E+00  0.1200E+02
    -34.166  0.0000E+00  0.1200E+02
    -33.981  0.0000E+00  0.1200E+02
    -33.796  0.0000E+00  0.1200E+02
    -33.612  0.0000E+00  0.1200E+02
    -33.427  0.0000E+00  0.1200E+02
    -33.242  0.0000E+00  0.1200E+02
    -33.057  0.0000E+00  0.1200E+02
    -32.873  0.0000E+00  0.1200E+02
    -32.688  0.0000E+00  0.1200E+02
    -32.503  0.0000E+00  0.1200E+02
    -32.318  0.0000E+00  0.1200E+02
    -32.134  0.0000E+00  0.1200E+02
    -31.949  0.0000E+00  0.1200E+02
    -31.764  0.0000E+00  0.1200E+02
    -31.580  0.0000E+00  0.1200E+02
    -31.395  0.0000E+00  0.1200E+02
    -31.210  0.0000E+00  0.1200E+02
    -31.025  0.0000E+00  0.1200E+02
    -30.841  0.0000E+00  0.1200E+02
    -30.656  0.0000E+00  0.1200E+02
    -30.471  0.0000E+00  0.1200E+02
    -30.286  0.0000E+00  0.1200E+02
    -30.102  0.0000E+00  0.1200E+02
    -29.917  0.0000E+00  0.1200E+02
    -29.732  0.0000E+00  0.1200E+02
    -29.548  0.0000E+00  0.1200E+02
    -29.363  0.0000E+00  0.1200E+02
    -29.178  0.0000E+00  0.1200E+02
    -28.993  0.0000E+00  0.1200E+02
    -28.809  0.0000E+00  0.1200E+02
    -28.624  0.0000E+00  0.1200E+02
    -28.439  0.0000E+00  0.1200E+02
    -28.254  0.0000E+00  0.1200E+02
    -28.070  0.0000E+00  0.1200E+02
    -27.885  0.0000E+00  0.1200E+02
    -27.700  0.0000E+00  0.1200E+02
    -27.515  0.0000E+00  0.1200E+02
    -27.331  0.0000E+00  0.1200E+02
    -27.146  0.0000E+00  0.1200E+02
    -26.961  0.0000E+00  0.1200E+02
    -26.777  0.0000E+00  0.1200E+02
    -26.592  0.0000E+00  0.1200E+02
    -26.407  0.0000E+00  0.1200E+02
    -26.222  0.0000E+00  0.1200E+02
    -26.038  0.0000E+00  0.1200E+02
    -25.853  0.0000E+00  0.1200E+02
    -25.668  0.0000E+00  0.1200E+02
    -25.483  0.0000E+00  0.1200E+02
    -25.299  0.0000E+00  0.1200E+02
    -25.114  0.0000E+00  0.1200E+02
    -24.929  0.0000E+00  0.1200E+02
    -24.745  0.0000E+00  0.1200E+02
    -24.560  0.0000E+00  0.1200E+02
    -24.375  0.0000E+00  0.1200E+02
    -24.190  0.0000E+00  0.1200E+02
    -24.006  0.0000E+00  0.1200E+02
    -23.821  0.0000E+00  0.1200E+02
    -23.636  0.0000E+00  0.1200E+02
    -23.451  0.0000E+00  0.1200E+02
    -23.267  0.0000E+00  0.1200E+02
    -23.082  0.0000E+00  0.1200E+02
    -22.897  0.0000E+00  0.1200E+02
    -22.713  0.0000E+00  0.1200E+02
    -22.528  0.0000E+00  0.1200E+02
    -22.343  0.0000E+00  0.1200E+02
    -22.158  0.0000E+00  0.1200E+02
    -21.974  0.0000E+00  0.1200E+02
    -21.789  0.0000E+00  0.1200E+02
    -21.604  0.0000E+00  0.1200E+02
    -21.419  0.0000E+00  0.1200E+02
    -21.235  0.0000E+00  0.1200E+02
    -21.050  0.0000E+00  0.1200E+02
    -20.865  0.0000E+00  0.1200E+02
    -20.681  0.0000E+00  0.1200E+02
    -20.496  0.0000E+00  0.1200E+02
    -20.311  0.0000E+00  0.1200E+02
    -20.126  0.0000E+00  0.1200E+02
    -19.942  0.0000E+00  0.1200E+02
    -19.757  0.0000E+00  0.1200E+02
    -19.572  0.0000E+00  0.1200E+02
    -19.387  0.0000E+00  0.1200E+02
    -19.203  0.0000E+00  0.1200E+02
    -19.018  0.0000E+00  0.1200E+02
    -18.833  0.0000E+00  0.1200E+02
    -18.648  0.0000E+00  0.1200E+02
    -18.464  0.0000E+00  0.1200E+02
    -18.279  0.0000E+00  0.1200E+02
    -18.094  0.0000E+00  0.1200E+02
    -17.910  0.0000E+00  0.1200E+02
    -17.725  0.0000E+00  0.1200E+02
    -17.540  0.0000E+00  0.1200E+02
    -17.355  0.0000E+00  0.1200E+02
    -17.171  0.0000E+00  0.1200E+02
    -16.986  0.0000E+00  0.1200E+02
    -16.801  0.0000E+00  0.1200E+02
    -16.616  0.0000E+00  0.1200E+02
    -16.432  0.0000E+00  0.1200E+02
    -16.247  0.0000E+00  0.1200E+02
    -16.062  0.0000E+00  0.1200E+02
    -15.878  0.0000E+00  0.1200E+02
    -15.693  0.0000E+00  0.1200E+02
    -15.508  0.0000E+00  0.1200E+02
    -15.323  0.0000E+00  0.1200E+02
    -15.139  0.0000E+00  0.1200E+02
    -14.954  0.0000E+00  0.1200E+02
    -14.769  0.0000E+00  0.1200E+02
    -14.584  0.0000E+00  0.1200E+02
    -14.400  0.0000E+00  0.1200E+02
    -14.215  0.0000E+00  0.1200E+02
    -14.030  0.0000E+00  0.1200E+02
    -13.846  0.0000E+00  0.1200E+02
    -13.661  0.0000E+00  0.1200E+02
    -13.476  0.0000E+00  0.1200E+02
    -13.291  0.0000E+00  0.1200E+02
    -13.107  0.0000E+00  0.1200E+02
    -12.922  0.0000E+00  0.1200E+02
    -12.737  0.0000E+00  0.1200E+02
    -12.552  0.0000E+00  0.1200E+02
    -12.368  0.1493E+02  0.1242E+02
    -12.183  0.0000E+00  0.1600E+02
    -11.998  0.0000E+00  0.1600E+02
    -11.814  0.0000E+00  0.1600E+02
    -11.629  0.0000E+00  0.1600E+02
    -11.444  0.0000E+00  0.1600E+02
    -11.259  0.0000E+00  0.1600E+02
    -11.075  0.0000E+00  0.1600E+02
    -10.890  0.0000E+00  0.1600E+02
    -10.705  0.0000E+00  0.1600E+02
    -10.520  0.0000E+00  0.1600E+02
    -10.336  0.0000E+00  0.1600E+02
    -10.151  0.0000E+00  0.1600E+02
     -9.966  0.0000E+00  0.1600E+02
     -9.782  0.0000E+00  0.1600E+02
     -9.597  0.0000E+00  0.1600E+02
     -9.412  0.1594E+02  0.1943E+02
     -9.227  0.1328E+02  0.2284E+02
     -9.043  0.3123E+02  0.2688E+02
     -8.858  0.0000E+00  0.2800E+02
     -8.673  0.0000E+00  0.2800E+02
     -8.488  0.0000E+00  0.2800E+02
     -8.304  0.0000E+00  0.2800E+02
     -8.119  0.0000E+00  0.2800E+02
     -7.934  0.0000E+00  0.2800E+02
     -7.749  0.0000E+00  0.2800E+02
     -7.565  0.0000E+00  0.2800E+02
     -7.380  0.0000E+00  0.2800E+02
     -7.195  0.0000E+00  0.2800E+02
     -7.011  0.0000E+00  0.2800E+02
     -6.826  0.0000E+00  0.2800E+02
     -6.641  0.0000E+00  0.2800E+02
     -6.456  0.0000E+00  0.2800E+02
     -6.272  0.0000E+00  0.2800E+02
     -6.087  0.0000E+00  0.2800E+02
     -5.902  0.0000E+00  0.2800E+02
     -5.717  0.0000E+00  0.2800E+02
     -5.533  0.3883E-02  0.2800E+02
     -5.348  0.1207E+01  0.2808E+02
     -5.163  0.7440E+01  0.2882E+02
     -4.979  0.5505E+01  0.2992E+02
     -4.794  0.9636E+01  0.3179E+02
     -4.609  0.0000E+00  0.3200E+02
     -4.424  0.0000E+00  0.3200E+02
     -4.240  0.0000E+00  0.3200E+02
     -4.055  0.0000E+00  0.3200E+02
     -3.870  0.0000E+00  0.3200E+02
     -3.685  0.0000E+00  0.3200E+02
     -3.501  0.0000E+00  0.3200E+02
     -3.316  0.0000E+00  0.3200E+02
     -3.131  0.0000E+00  0.3200E+02
     -2.947  0.0000E+00  0.3200E+02
     -2.762  0.0000E+00  0.3200E+02
     -2.577  0.2283E+01  0.3205E+02
     -2.392  0.1043E+02  0.3326E+02
     -2.208  0.9654E+01  0.3607E+02
     -2.023  0.1469E+02  0.3931E+02
     -1.838  0.2355E+02  0.4223E+02
     -1.653  0.0000E+00  0.4400E+02
     -1.469  0.0000E+00  0.4400E+02
     -1.284  0.0000E+00  0.4400E+02
     -1.099  0.0000E+00  0.4400E+02
     -0.915  0.0000E+00  0.4400E+02
     -0.730  0.0000E+00  0.4400E+02
     -0.545  0.0000E+00  0.4400E+02
     -0.360  0.0000E+00  0.4400E+02
     -0.176  0.2579E+01  0.4403E+02
      0.009  0.1115E+02  0.4629E+02
      0.194  0.7971E+01  0.4813E+02
      0.379  0.4610E+01  0.5016E+02
      0.563  0.9712E+01  0.5241E+02
      0.748  0.1186E+02  0.5510E+02
      0.933  0.5362E+01  0.5629E+02
      1.118  0.1361E+02  0.5850E+02
      1.302  0.8680E+01  0.6033E+02
      1.487  0.1140E+02  0.6245E+02
      1.672  0.1272E+02  0.6461E+02
      1.856  0.7482E+01  0.6625E+02
      2.041  0.8559E+01  0.6847E+02
      2.226  0.1210E+02  0.7140E+02
      2.411  0.9793E+01  0.7235E+02
      2.595  0.1509E+02  0.7553E+02
      2.780  0.0000E+00  0.7600E+02
      2.965  0.0000E+00  0.7600E+02
      3.150  0.0000E+00  0.7600E+02
      3.334  0.0000E+00  0.7600E+02
      3.519  0.0000E+00  0.7600E+02
      3.704  0.0000E+00  0.7600E+02
      3.888  0.0000E+00  0.7600E+02
      4.073  0.0000E+00  0.7600E+02
      4.258  0.0000E+00  0.7600E+02
      4.443  0.0000E+00  0.7600E+02
      4.627  0.0000E+00  0.7600E+02
      4.812  0.0000E+00  0.7600E+02
      4.997  0.0000E+00  0.7600E+02
      5.182  0.0000E+00  0.7600E+02
      5.366  0.5410E+00  0.7601E+02
      5.551  0.4323E+01  0.7643E+02
      5.736  0.3512E+01  0.7744E+02
      5.920  0.9442E+01  0.7859E+02
      6.105  0.4376E+01  0.7968E+02
      6.290  0.0000E+00  0.8000E+02
      6.475  0.7189E+01  0.8032E+02
      6.659  0.1606E+02  0.8266E+02
      6.844  0.2383E+01  0.8407E+02
      7.029  0.1239E+02  0.8560E+02
      7.214  0.9338E+01  0.8800E+02
      7.398  0.1372E+02  0.9009E+02
      7.583  0.3046E+01  0.9194E+02
      7.768  0.0000E+00  0.9200E+02
      7.952  0.0000E+00  0.9200E+02
      8.137  0.1709E+01  0.9208E+02
      8.322  0.4376E+01  0.9269E+02
      8.507  0.5629E+01  0.9370E+02
      8.691  0.3391E+01  0.9414E+02
      8.876  0.9745E+01  0.9556E+02
      9.061  0.0000E+00  0.9600E+02
      9.246  0.0000E+00  0.9600E+02
      9.430  0.0000E+00  0.9600E+02
      9.615  0.0000E+00  0.9600E+02
      9.800  0.0000E+00  0.9600E+02
      9.984  0.0000E+00  0.9600E+02
     10.169  0.0000E+00  0.9600E+02
     10.354  0.0000E+00  0.9600E+02
     10.539  0.0000E+00  0.9600E+02
     10.723  0.0000E+00  0.9600E+02
     10.908  0.0000E+00  0.9600E+02
     11.093  0.0000E+00  0.9600E+02
     11.278  0.0000E+00  0.9600E+02
     11.462  0.0000E+00  0.9600E+02
