       N       E                     dE             d eps       ncg     rms          rms(c)
DAV:   1     0.502569561908E+03    0.50257E+03   -0.28728E+04   768   0.131E+03
DAV:   2    -0.100842031477E+02   -0.51265E+03   -0.48737E+03   896   0.309E+02
DAV:   3    -0.718805258779E+02   -0.61796E+02   -0.61152E+02  1040   0.968E+01
DAV:   4    -0.787116555817E+02   -0.68311E+01   -0.68048E+01  1416   0.317E+01
DAV:   5    -0.795338725785E+02   -0.82222E+00   -0.82205E+00  1144   0.724E+00    0.230E+01
RMM:   6    -0.773718883587E+02    0.21620E+01   -0.63777E+00   927   0.585E+00    0.152E+01
RMM:   7    -0.769447123782E+02    0.42718E+00   -0.25679E+00   971   0.414E+00    0.414E+00
RMM:   8    -0.768753286490E+02    0.69384E-01   -0.25008E-01  1102   0.156E+00    0.571E-01
RMM:   9    -0.768687966508E+02    0.65320E-02   -0.36404E-02  1136   0.595E-01    0.236E-01
RMM:  10    -0.768691703418E+02   -0.37369E-03   -0.83114E-03  1329   0.255E-01    0.146E-01
RMM:  11    -0.768696089157E+02   -0.43857E-03   -0.43080E-03  1254   0.154E-01    0.493E-02
RMM:  12    -0.768697659714E+02   -0.15706E-03   -0.18469E-03  1233   0.110E-01    0.241E-02
RMM:  13    -0.768698621064E+02   -0.96135E-04   -0.10562E-03   903   0.793E-02    0.169E-02
RMM:  14    -0.768699062886E+02   -0.44182E-04   -0.49539E-04  1033   0.665E-02    0.387E-03
RMM:  15    -0.768699333185E+02   -0.27030E-04   -0.31191E-04   856   0.555E-02    0.328E-03
RMM:  16    -0.768699454193E+02   -0.12101E-04   -0.15310E-04   801   0.484E-02
   1 F= -.76869945E+02 E0= -.76869945E+02  d E =0.000000E+00
