<?xml version="1.0" encoding="ISO-8859-1"?>
<modeling>
 <generator>
  <i name="program" type="string">vasp </i>
  <i name="version" type="string">5.4.4.18Apr17-6-g9f103f2a35  </i>
  <i name="subversion" type="string">(build Feb 28 2020 14:15:47) complex            parallel </i>
  <i name="platform" type="string">LinuxIFC </i>
  <i name="date" type="string">2022 08 07 </i>
  <i name="time" type="string">08:08:11 </i>
 </generator>
 <incar>
  <i type="int" name="ISTART">     0</i>
  <i type="string" name="PREC">accurate</i>
  <i type="string" name="ALGO"> FAST</i>
  <i type="int" name="ISPIN">     1</i>
  <i type="int" name="ICHARG">     2</i>
  <i type="int" name="INIWAV">     1</i>
  <i type="int" name="NELM">   100</i>
  <i type="int" name="IBRION">     2</i>
  <i name="EDIFF">      0.00002000</i>
  <i name="EDIFFG">      0.00020000</i>
  <i type="int" name="NSW">     0</i>
  <i type="int" name="ISIF">     7</i>
  <i name="ENCUT">    420.00000000</i>
  <i type="string" name="LREAL"> AUTO</i>
  <i type="int" name="ISMEAR">    -5</i>
  <i type="logical" name="LWAVE"> F  </i>
  <i type="logical" name="LCHARG"> F  </i>
  <v type="int" name="KPOINT_BSE">    -1     0     0     0</v>
  <i type="int" name="NELM">   100</i>
 </incar>
 <structure name="primitive_cell" >
  <crystal>
   <varray name="basis" >
    <v>       7.78522441       0.00000000       0.00000000 </v>
    <v>       0.00000000       6.14118297       0.00000000 </v>
    <v>       0.00000000       0.00000000       5.92942143 </v>
   </varray>
   <i name="volume">    283.48852927 </i>
   <varray name="rec_basis" >
    <v>       0.12844845       0.00000000       0.00000000 </v>
    <v>       0.00000000       0.16283508       0.00000000 </v>
    <v>       0.00000000       0.00000000       0.16865052 </v>
   </varray>
  </crystal>
  <varray name="positions" >
   <v>       0.00000000      -0.22874686      -0.47171875 </v>
   <v>       0.00000000       0.06825331      -0.32158202 </v>
   <v>       0.00000000      -0.19380612       0.18777543 </v>
   <v>       0.20845417      -0.39484550      -0.35256509 </v>
   <v>      -0.20845417      -0.39484550      -0.35256509 </v>
   <v>       0.00000000       0.43372269      -0.05976682 </v>
   <v>      -0.23312285       0.23243000      -0.49836575 </v>
   <v>       0.23312285       0.23243000      -0.49836575 </v>
   <v>       0.26687715      -0.23243000       0.00163425 </v>
   <v>      -0.26687715      -0.23243000       0.00163425 </v>
   <v>      -0.29154583       0.39484550       0.14743491 </v>
   <v>       0.29154583       0.39484550       0.14743491 </v>
   <v>      -0.50000000      -0.43372269       0.44023318 </v>
   <v>      -0.50000000      -0.06825331       0.17841798 </v>
   <v>      -0.50000000       0.19380612      -0.31222457 </v>
   <v>      -0.50000000       0.22874686       0.02828125 </v>
  </varray>
 </structure>
 <varray name="primitive_index" >
  <v type="int" >        1 </v>
  <v type="int" >        9 </v>
  <v type="int" >        7 </v>
  <v type="int" >        3 </v>
  <v type="int" >        6 </v>
  <v type="int" >       11 </v>
  <v type="int" >       15 </v>
  <v type="int" >       14 </v>
  <v type="int" >       13 </v>
  <v type="int" >       16 </v>
  <v type="int" >        5 </v>
  <v type="int" >        4 </v>
  <v type="int" >       12 </v>
  <v type="int" >       10 </v>
  <v type="int" >        8 </v>
  <v type="int" >        2 </v>
 </varray>
 <kpoints>
  <generation param="Monkhorst-Pack">
   <v type="int" name="divisions">       3        3        3 </v>
   <v name="usershift">      0.00000000       0.00000000       0.00000000 </v>
   <v name="genvec1">      0.33333333       0.00000000       0.00000000 </v>
   <v name="genvec2">      0.00000000       0.33333333       0.00000000 </v>
   <v name="genvec3">      0.00000000       0.00000000       0.33333333 </v>
   <v name="shift">      0.00000000       0.00000000       0.00000000 </v>
  </generation>
  <varray name="kpointlist" >
   <v>       0.00000000       0.00000000       0.00000000 </v>
   <v>       0.33333333       0.00000000       0.00000000 </v>
   <v>       0.00000000       0.33333333       0.00000000 </v>
   <v>       0.33333333       0.33333333       0.00000000 </v>
   <v>       0.00000000       0.00000000       0.33333333 </v>
   <v>       0.33333333       0.00000000       0.33333333 </v>
   <v>       0.00000000       0.33333333       0.33333333 </v>
   <v>       0.33333333       0.33333333       0.33333333 </v>
  </varray>
  <varray name="weights" >
   <v>       0.03703704 </v>
   <v>       0.07407407 </v>
   <v>       0.07407407 </v>
   <v>       0.14814815 </v>
   <v>       0.07407407 </v>
   <v>       0.14814815 </v>
   <v>       0.14814815 </v>
   <v>       0.29629630 </v>
  </varray>
  <varray name="tetrahedronlist"  type="int" >
   <v type="int" >        2        1        2        4        5 </v>
   <v type="int" >        2        1        3        4        5 </v>
   <v type="int" >        2        3        4        5        7 </v>
   <v type="int" >        2        2        4        5        6 </v>
   <v type="int" >        2        4        5        6        8 </v>
   <v type="int" >        2        4        5        7        8 </v>
   <v type="int" >        2        2        2        4        6 </v>
   <v type="int" >        2        2        4        4        6 </v>
   <v type="int" >        2        4        4        6        8 </v>
   <v type="int" >        2        2        4        6        6 </v>
   <v type="int" >        2        4        6        6        8 </v>
   <v type="int" >        2        4        6        8        8 </v>
   <v type="int" >        2        1        2        3        6 </v>
   <v type="int" >        2        2        3        4        6 </v>
   <v type="int" >        2        3        4        6        8 </v>
   <v type="int" >        2        1        3        5        6 </v>
   <v type="int" >        2        3        5        6        7 </v>
   <v type="int" >        2        3        6        7        8 </v>
   <v type="int" >        2        3        4        4        7 </v>
   <v type="int" >        2        3        3        4        7 </v>
   <v type="int" >        2        3        4        7        7 </v>
   <v type="int" >        2        4        4        7        8 </v>
   <v type="int" >        2        4        7        8        8 </v>
   <v type="int" >        2        4        7        7        8 </v>
   <v type="int" >        4        4        4        4        8 </v>
   <v type="int" >        4        4        4        8        8 </v>
   <v type="int" >        4        4        8        8        8 </v>
   <v type="int" >        2        3        3        4        8 </v>
   <v type="int" >        2        3        4        4        8 </v>
   <v type="int" >        2        3        4        8        8 </v>
   <v type="int" >        2        3        3        7        8 </v>
   <v type="int" >        2        3        7        7        8 </v>
   <v type="int" >        2        3        7        8        8 </v>
   <v type="int" >        2        2        3        4        7 </v>
   <v type="int" >        2        1        2        3        7 </v>
   <v type="int" >        2        1        2        5        7 </v>
   <v type="int" >        2        2        4        7        8 </v>
   <v type="int" >        2        2        6        7        8 </v>
   <v type="int" >        2        2        5        6        7 </v>
   <v type="int" >        2        2        4        4        8 </v>
   <v type="int" >        2        2        2        4        8 </v>
   <v type="int" >        2        2        2        6        8 </v>
   <v type="int" >        2        2        4        8        8 </v>
   <v type="int" >        2        2        6        8        8 </v>
   <v type="int" >        2        2        6        6        8 </v>
   <v type="int" >        2        1        3        4        8 </v>
   <v type="int" >        2        1        2        4        8 </v>
   <v type="int" >        2        1        2        6        8 </v>
   <v type="int" >        2        1        3        7        8 </v>
   <v type="int" >        2        1        5        7        8 </v>
   <v type="int" >        2        1        5        6        8 </v>
   <v type="int" >        2        5        5        6        8 </v>
   <v type="int" >        2        5        5        7        8 </v>
   <v type="int" >        2        5        7        7        8 </v>
   <v type="int" >        2        5        6        6        8 </v>
   <v type="int" >        2        5        6        8        8 </v>
   <v type="int" >        2        5        7        8        8 </v>
   <v type="int" >        4        6        6        6        8 </v>
   <v type="int" >        4        6        6        8        8 </v>
   <v type="int" >        4        6        8        8        8 </v>
   <v type="int" >        2        5        6        6        7 </v>
   <v type="int" >        2        6        6        7        8 </v>
   <v type="int" >        2        6        7        8        8 </v>
   <v type="int" >        2        5        5        6        7 </v>
   <v type="int" >        2        5        6        7        7 </v>
   <v type="int" >        2        6        7        7        8 </v>
   <v type="int" >        4        7        7        8        8 </v>
   <v type="int" >        4        7        7        7        8 </v>
   <v type="int" >        4        7        8        8        8 </v>
   <v type="int" >        6        8        8        8        8 </v>
  </varray>
  <i name="volumeweight">      0.00617284 </i>
 </kpoints>
 <parameters>
  <separator name="general" >
   <i type="string" name="SYSTEM">unknown system</i>
   <i type="logical" name="LCOMPAT"> F  </i>
  </separator>
  <separator name="electronic" >
   <i type="string" name="PREC">accura</i>
   <i name="ENMAX">    420.00000000</i>
   <i name="ENAUG">    628.94500000</i>
   <i name="EDIFF">      0.00002000</i>
   <i type="int" name="IALGO">    68</i>
   <i type="int" name="IWAVPR">    10</i>
   <i type="int" name="NBANDS">    48</i>
   <i name="NELECT">     76.00000000</i>
   <i type="int" name="TURBO">     0</i>
   <i type="int" name="IRESTART">     0</i>
   <i type="int" name="NREBOOT">     0</i>
   <i type="int" name="NMIN">     0</i>
   <i name="EREF">      0.00000000</i>
   <separator name="electronic smearing" >
    <i type="int" name="ISMEAR">    -5</i>
    <i name="SIGMA">      0.20000000</i>
    <i name="KSPACING">      0.50000000</i>
    <i type="logical" name="KGAMMA"> T  </i>
   </separator>
   <separator name="electronic projectors" >
    <i type="logical" name="LREAL"> T  </i>
    <v name="ROPT">     -0.00025000     -0.00025000     -0.00025000</v>
    <i type="int" name="LMAXPAW">  -100</i>
    <i type="int" name="LMAXMIX">     2</i>
    <i type="logical" name="NLSPLINE"> F  </i>
   </separator>
   <separator name="electronic startup" >
    <i type="int" name="ISTART">     0</i>
    <i type="int" name="ICHARG">     2</i>
    <i type="int" name="INIWAV">     1</i>
   </separator>
   <separator name="electronic spin" >
    <i type="int" name="ISPIN">     1</i>
    <i type="logical" name="LNONCOLLINEAR"> F  </i>
    <v name="MAGMOM">      1.00000000      1.00000000      1.00000000      1.00000000      1.00000000      1.00000000      1.00000000      1.00000000      1.00000000      1.00000000      1.00000000      1.00000000      1.00000000      1.00000000      1.00000000      1.00000000</v>
    <i name="NUPDOWN">     -1.00000000</i>
    <i type="logical" name="LSORBIT"> F  </i>
    <v name="SAXIS">      0.00000000      0.00000000      1.00000000</v>
    <i type="logical" name="LSPIRAL"> F  </i>
    <v name="QSPIRAL">      0.00000000      0.00000000      0.00000000</v>
    <i type="logical" name="LZEROZ"> F  </i>
   </separator>
   <separator name="electronic exchange-correlation" >
    <i type="logical" name="LASPH"> F  </i>
    <i type="logical" name="LMETAGGA"> F  </i>
   </separator>
   <separator name="electronic convergence" >
    <i type="int" name="NELM">   100</i>
    <i type="int" name="NELMDL">    -5</i>
    <i type="int" name="NELMIN">     2</i>
    <i name="ENINI">    420.00000000</i>
    <separator name="electronic convergence detail" >
     <i type="logical" name="LDIAG"> T  </i>
     <i type="logical" name="LSUBROT"> F  </i>
     <i name="WEIMIN">      0.00000000</i>
     <i name="EBREAK">      0.00000010</i>
     <i name="DEPER">      0.30000000</i>
     <i type="int" name="NRMM">     4</i>
     <i name="TIME">      0.40000000</i>
    </separator>
   </separator>
   <separator name="electronic mixer" >
    <i name="AMIX">      0.40000000</i>
    <i name="BMIX">      1.00000000</i>
    <i name="AMIN">      0.10000000</i>
    <i name="AMIX_MAG">      1.60000000</i>
    <i name="BMIX_MAG">      1.00000000</i>
    <separator name="electronic mixer details" >
     <i type="int" name="IMIX">     4</i>
     <i type="logical" name="MIXFIRST"> F  </i>
     <i type="int" name="MAXMIX">   -45</i>
     <i name="WC">    100.00000000</i>
     <i type="int" name="INIMIX">     1</i>
     <i type="int" name="MIXPRE">     1</i>
     <i type="int" name="MREMOVE">     5</i>
    </separator>
   </separator>
   <separator name="electronic dipolcorrection" >
    <i type="logical" name="LDIPOL"> F  </i>
    <i type="logical" name="LMONO"> F  </i>
    <i type="int" name="IDIPOL">     0</i>
    <i name="EPSILON">      1.00000000</i>
    <v name="DIPOL">   -100.00000000   -100.00000000   -100.00000000</v>
    <i name="EFIELD">      0.00000000</i>
   </separator>
  </separator>
  <separator name="grids" >
   <i type="int" name="NGX">    54</i>
   <i type="int" name="NGY">    42</i>
   <i type="int" name="NGZ">    40</i>
   <i type="int" name="NGXF">   108</i>
   <i type="int" name="NGYF">    84</i>
   <i type="int" name="NGZF">    80</i>
   <i type="logical" name="ADDGRID"> F  </i>
  </separator>
  <separator name="ionic" >
   <i type="int" name="NSW">     0</i>
   <i type="int" name="IBRION">    -1</i>
   <i type="int" name="MDALGO">     0</i>
   <i type="int" name="ISIF">     7</i>
   <i name="PSTRESS">      0.00000000</i>
   <i name="EDIFFG">      0.00020000</i>
   <i type="int" name="NFREE">     1</i>
   <i name="POTIM">      0.50000000</i>
   <i name="SMASS">     -3.00000000</i>
   <i name="SCALEE">      1.00000000</i>
  </separator>
  <separator name="ionic md" >
   <i name="TEBEG">      0.00010000</i>
   <i name="TEEND">      0.00010000</i>
   <i type="int" name="NBLOCK">     1</i>
   <i type="int" name="KBLOCK">     1</i>
   <i type="int" name="NPACO">   256</i>
   <i name="APACO">     16.00000000</i>
  </separator>
  <separator name="symmetry" >
   <i type="int" name="ISYM">     2</i>
   <i name="SYMPREC">      0.00001000</i>
  </separator>
  <separator name="dos" >
   <i type="int" name="LORBIT">     0</i>
   <v name="RWIGS">     -1.00000000     -1.00000000     -1.00000000</v>
   <i type="int" name="NEDOS">   301</i>
   <i name="EMIN">     10.00000000</i>
   <i name="EMAX">    -10.00000000</i>
   <i name="EFERMI">      0.00000000</i>
  </separator>
  <separator name="writing" >
   <i type="int" name="NWRITE">     2</i>
   <i type="logical" name="LWAVE"> F  </i>
   <i type="logical" name="LDOWNSAMPLE"> F  </i>
   <i type="logical" name="LCHARG"> F  </i>
   <i type="logical" name="LPARD"> F  </i>
   <i type="logical" name="LVTOT"> F  </i>
   <i type="logical" name="LVHAR"> F  </i>
   <i type="logical" name="LELF"> F  </i>
   <i type="logical" name="LOPTICS"> F  </i>
   <v name="STM">      0.00000000      0.00000000      0.00000000      0.00000000      0.00000000      0.00000000      0.00000000</v>
  </separator>
  <separator name="performance" >
   <i type="int" name="NPAR">     4</i>
   <i type="int" name="NSIM">     4</i>
   <i type="int" name="NBLK">    -1</i>
   <i type="logical" name="LPLANE"> T  </i>
   <i type="logical" name="LSCALAPACK"> T  </i>
   <i type="logical" name="LSCAAWARE"> F  </i>
   <i type="logical" name="LSCALU"> F  </i>
   <i type="logical" name="LASYNC"> F  </i>
   <i type="logical" name="LORBITALREAL"> F  </i>
  </separator>
  <separator name="miscellaneous" >
   <i type="int" name="IDIOT">     3</i>
   <i type="int" name="ISPECIAL">     0</i>
   <i type="logical" name="LMUSIC"> F  </i>
   <v name="POMASS">     30.97400000     32.06600000      7.01000000</v>
   <v name="DARWINR">      0.00000000      0.00000000      0.00000000</v>
   <v name="DARWINV">      1.00000000      1.00000000      1.00000000</v>
   <i type="logical" name="LCORR"> T  </i>
  </separator>
  <i type="logical" name="GGA_COMPAT"> T  </i>
  <i type="logical" name="LBERRY"> F  </i>
  <i type="int" name="ICORELEVEL">     0</i>
  <i type="logical" name="LDAU"> F  </i>
  <i type="int" name="I_CONSTRAINED_M">     0</i>
  <separator name="electronic exchange-correlation" >
   <i type="string" name="GGA">--</i>
   <i type="int" name="VOSKOWN">     0</i>
   <i type="logical" name="LHFCALC"> F  </i>
   <i type="string" name="PRECFOCK"></i>
   <i type="logical" name="LSYMGRAD"> F  </i>
   <i type="logical" name="LHFONE"> F  </i>
   <i type="logical" name="LRHFCALC"> F  </i>
   <i type="logical" name="LTHOMAS"> F  </i>
   <i type="logical" name="LMODELHF"> F  </i>
   <i name="ENCUT4O">     -1.00000000</i>
   <i type="int" name="EXXOEP">     0</i>
   <i type="int" name="FOURORBIT">     0</i>
   <i name="AEXX">      0.00000000</i>
   <i name="HFALPHA">      0.00000000</i>
   <i name="MCALPHA">      0.00000000</i>
   <i name="ALDAX">      1.00000000</i>
   <i name="AGGAX">      1.00000000</i>
   <i name="ALDAC">      1.00000000</i>
   <i name="AGGAC">      1.00000000</i>
   <i type="int" name="NKREDX">     1</i>
   <i type="int" name="NKREDY">     1</i>
   <i type="int" name="NKREDZ">     1</i>
   <i type="logical" name="SHIFTRED"> F  </i>
   <i type="logical" name="ODDONLY"> F  </i>
   <i type="logical" name="EVENONLY"> F  </i>
   <i type="int" name="LMAXFOCK">     0</i>
   <i type="int" name="NMAXFOCKAE">     0</i>
   <i type="logical" name="LFOCKAEDFT"> F  </i>
   <i name="HFSCREEN">      0.00000000</i>
   <i name="HFSCREENC">      0.00000000</i>
   <i type="int" name="NBANDSGWLOW">     0</i>
  </separator>
  <separator name="vdW DFT" >
   <i type="logical" name="LUSE_VDW"> F  </i>
   <i name="Zab_VDW">     -0.84910000</i>
   <i name="PARAM1">      0.12340000</i>
   <i name="PARAM2">      1.00000000</i>
   <i name="PARAM3">      0.00000000</i>
  </separator>
  <separator name="model GW" >
   <i type="int" name="MODEL_GW">     0</i>
   <i name="MODEL_EPS0">     10.63081985</i>
   <i name="MODEL_ALPHA">      1.00000000</i>
  </separator>
  <separator name="linear response parameters" >
   <i type="logical" name="LEPSILON"> F  </i>
   <i type="logical" name="LRPA"> F  </i>
   <i type="logical" name="LNABLA"> F  </i>
   <i type="logical" name="LVEL"> F  </i>
   <i type="int" name="KINTER">     0</i>
   <i name="CSHIFT">      0.10000000</i>
   <i name="OMEGAMAX">     -1.00000000</i>
   <i name="DEG_THRESHOLD">      0.00200000</i>
   <i name="RTIME">     -0.10000000</i>
   <i name="WPLASMAI">      0.00000000</i>
   <v name="DFIELD">      0.00000000      0.00000000      0.00000000</v>
   <v name="WPLASMA">      0.00000000      0.00000000      0.00000000      0.00000000      0.00000000      0.00000000      0.00000000      0.00000000      0.00000000</v>
  </separator>
  <separator name="orbital magnetization" >
   <i type="logical" name="NUCIND"> F  </i>
   <v name="MAGPOS">      0.00000000      0.00000000      0.00000000</v>
   <i type="logical" name="LNICSALL"> T  </i>
   <i type="logical" name="ORBITALMAG"> F  </i>
   <i type="logical" name="LMAGBLOCH"> F  </i>
   <i type="logical" name="LCHIMAG"> F  </i>
   <i type="logical" name="LGAUGE"> T  </i>
   <i type="int" name="MAGATOM">     0</i>
   <v name="MAGDIPOL">      0.00000000      0.00000000      0.00000000</v>
   <v name="AVECCONST">      0.00000000      0.00000000      0.00000000</v>
  </separator>
  <separator name="response functions" >
   <i type="logical" name="LADDER"> F  </i>
   <i type="logical" name="LRPAFORCE"> F  </i>
   <i type="logical" name="LFXC"> F  </i>
   <i type="logical" name="LHARTREE"> T  </i>
   <i type="int" name="IBSE">     0</i>
   <v type="int" name="KPOINT">    -1     0     0     0</v>
   <i type="logical" name="LTCTE"> F  </i>
   <i type="logical" name="LTETE"> F  </i>
   <i type="logical" name="LTRIPLET"> F  </i>
   <i type="logical" name="LFXCEPS"> F  </i>
   <i type="logical" name="LFXHEG"> F  </i>
   <i type="int" name="NATURALO">     2</i>
   <i type="logical" name="L2ORDER"> F  </i>
   <i type="logical" name="LMP2LT"> F  </i>
   <i type="logical" name="LUSEW"> F  </i>
   <i name="ENCUTGW">     -2.00000000</i>
   <i name="ENCUTGWSOFT">     -2.00000000</i>
   <i name="ENCUTLF">     -1.00000000</i>
   <i type="int" name="LMAXMP2">    -1</i>
   <i name="SCISSOR">      0.00000000</i>
   <i type="int" name="NOMEGA">     0</i>
   <i type="int" name="NOMEGAR">     0</i>
   <i type="int" name="NBANDSGW">    -1</i>
   <i type="int" name="NBANDSO">    -1</i>
   <i type="int" name="NBANDSV">    -1</i>
   <i type="int" name="NELM">   100</i>
   <i type="int" name="NELMHF">     1</i>
   <i type="int" name="DIM">     3</i>
   <i type="int" name="ANTIRES">     0</i>
   <i name="OMEGAMAX">    -30.00000000</i>
   <i name="OMEGAMIN">    -30.00000000</i>
   <i name="OMEGATL">   -200.00000000</i>
   <i type="int" name="OMEGAGRID">   140</i>
   <i name="CSHIFT">     -0.10000000</i>
   <i type="logical" name="SELFENERGY"> F  </i>
   <i type="logical" name="LSPECTRAL"> F  </i>
   <i type="logical" name="LSPECTRALGW"> F  </i>
   <i type="logical" name="LSINGLES"> F  </i>
   <i type="logical" name="LFERMIGW"> F  </i>
   <i type="logical" name="ODDONLYGW"> F  </i>
   <i type="logical" name="EVENONLYGW"> F  </i>
   <i type="int" name="NKREDLFX">     1</i>
   <i type="int" name="NKREDLFY">     1</i>
   <i type="int" name="NKREDLFZ">     1</i>
   <i type="int" name="MAXMEM">  2800</i>
   <i type="int" name="TELESCOPE">     0</i>
   <i type="int" name="TAUPAR">     1</i>
   <i type="int" name="OMEGAPAR">    -1</i>
   <i name="LAMBDA">      1.00000000</i>
  </separator>
  <separator name="External order field" >
   <i name="OFIELD_KAPPA">      0.00000000</i>
   <v name="OFIELD_K">      0.00000000      0.00000000      0.00000000</v>
   <i name="OFIELD_Q6_NEAR">      0.00000000</i>
   <i name="OFIELD_Q6_FAR">      0.00000000</i>
   <i name="OFIELD_A">      0.00000000</i>
  </separator>
 </parameters>
 <atominfo>
  <atoms>      16 </atoms>
  <types>       3 </types>
  <array name="atoms" >
   <dimension dim="1">ion</dimension>
   <field type="string">element</field>
   <field type="int">atomtype</field>
   <set>
    <rc><c>P </c><c>   1</c></rc>
    <rc><c>P </c><c>   1</c></rc>
    <rc><c>S </c><c>   2</c></rc>
    <rc><c>S </c><c>   2</c></rc>
    <rc><c>S </c><c>   2</c></rc>
    <rc><c>S </c><c>   2</c></rc>
    <rc><c>S </c><c>   2</c></rc>
    <rc><c>S </c><c>   2</c></rc>
    <rc><c>S </c><c>   2</c></rc>
    <rc><c>S </c><c>   2</c></rc>
    <rc><c>Li</c><c>   3</c></rc>
    <rc><c>Li</c><c>   3</c></rc>
    <rc><c>Li</c><c>   3</c></rc>
    <rc><c>Li</c><c>   3</c></rc>
    <rc><c>Li</c><c>   3</c></rc>
    <rc><c>Li</c><c>   3</c></rc>
   </set>
  </array>
  <array name="atomtypes" >
   <dimension dim="1">type</dimension>
   <field type="int">atomspertype</field>
   <field type="string">element</field>
   <field>mass</field>
   <field>valence</field>
   <field type="string">pseudopotential</field>
   <set>
    <rc><c>   2</c><c>P </c><c>     30.97400000</c><c>      5.00000000</c><c>  PAW P 26Mar2009                       </c></rc>
    <rc><c>   8</c><c>S </c><c>     32.06600000</c><c>      6.00000000</c><c>  PAW S 27Mar2009                       </c></rc>
    <rc><c>   6</c><c>Li</c><c>      7.01000000</c><c>      3.00000000</c><c>  PAW Li_sv 10Sep2004                   </c></rc>
   </set>
  </array>
 </atominfo>
 <structure name="initialpos" >
  <crystal>
   <varray name="basis" >
    <v>       7.78522441       0.00000000       0.00000000 </v>
    <v>       0.00000000       6.14118297       0.00000000 </v>
    <v>       0.00000000       0.00000000       5.92942143 </v>
   </varray>
   <i name="volume">    283.48852927 </i>
   <varray name="rec_basis" >
    <v>       0.12844845       0.00000000       0.00000000 </v>
    <v>       0.00000000       0.16283508       0.00000000 </v>
    <v>       0.00000000       0.00000000       0.16865052 </v>
   </varray>
  </crystal>
  <varray name="positions" >
   <v>       0.00000000       0.77125314       0.52828125 </v>
   <v>       0.50000000       0.22874686       0.02828125 </v>
   <v>       0.20845417       0.60515450       0.64743491 </v>
   <v>       0.29154583       0.39484550       0.14743491 </v>
   <v>       0.70845417       0.39484550       0.14743491 </v>
   <v>       0.79154583       0.60515450       0.64743491 </v>
   <v>       0.00000000       0.80619388       0.18777543 </v>
   <v>       0.50000000       0.19380612       0.68777543 </v>
   <v>       0.00000000       0.06825331       0.67841798 </v>
   <v>       0.50000000       0.93174669       0.17841798 </v>
   <v>       0.00000000       0.43372269       0.94023318 </v>
   <v>       0.50000000       0.56627731       0.44023318 </v>
   <v>       0.26687715       0.76757000       0.00163425 </v>
   <v>       0.23312285       0.23243000       0.50163425 </v>
   <v>       0.76687715       0.23243000       0.50163425 </v>
   <v>       0.73312285       0.76757000       0.00163425 </v>
  </varray>
 </structure>
 <calculation>
  <scstep>
   <time name="dav">    0.20    0.21</time>
   <time name="total">    0.22    0.23</time>
   <energy>
    <i name="alphaZ">     69.60760727 </i>
    <i name="ewald">  -2732.96885470 </i>
    <i name="hartreedc">   -631.63175947 </i>
    <i name="XCdc">    182.16280945 </i>
    <i name="pawpsdc">   2494.22442938 </i>
    <i name="pawaedc">  -2541.12215007 </i>
    <i name="eentropy">      0.00000000 </i>
    <i name="bandstr">   -106.79034374 </i>
    <i name="atom">   3769.08782378 </i>
    <i name="e_fr_energy">    502.56956191 </i>
    <i name="e_wo_entrp">    502.56956191 </i>
    <i name="e_0_energy">    502.56956191 </i>
   </energy>
  </scstep>
  <scstep>
   <time name="dav">    0.19    0.19</time>
   <time name="total">    0.19    0.19</time>
   <energy>
    <i name="e_fr_energy">    -10.08420315 </i>
    <i name="e_wo_entrp">    -10.08420315 </i>
    <i name="e_0_energy">    -10.08420315 </i>
   </energy>
  </scstep>
  <scstep>
   <time name="dav">    0.22    0.22</time>
   <time name="total">    0.22    0.22</time>
   <energy>
    <i name="e_fr_energy">    -71.88052588 </i>
    <i name="e_wo_entrp">    -71.88052588 </i>
    <i name="e_0_energy">    -71.88052588 </i>
   </energy>
  </scstep>
  <scstep>
   <time name="dav">    0.28    0.28</time>
   <time name="total">    0.28    0.28</time>
   <energy>
    <i name="e_fr_energy">    -78.71165558 </i>
    <i name="e_wo_entrp">    -78.71165558 </i>
    <i name="e_0_energy">    -78.71165558 </i>
   </energy>
  </scstep>
  <scstep>
   <time name="dav">    0.23    0.23</time>
   <time name="total">    0.25    0.25</time>
   <energy>
    <i name="e_fr_energy">    -79.53387258 </i>
    <i name="e_wo_entrp">    -79.53387258 </i>
    <i name="e_0_energy">    -79.53387258 </i>
   </energy>
  </scstep>
  <scstep>
   <time name="diag">    0.05    0.05</time>
   <time name="diis">    0.10    0.10</time>
   <time name="orth">    0.01    0.01</time>
   <time name="total">    0.18    0.18</time>
   <energy>
    <i name="e_fr_energy">    -77.37188836 </i>
    <i name="e_wo_entrp">    -77.37188836 </i>
    <i name="e_0_energy">    -77.37188836 </i>
   </energy>
  </scstep>
  <scstep>
   <time name="diag">    0.05    0.05</time>
   <time name="diis">    0.10    0.10</time>
   <time name="orth">    0.01    0.01</time>
   <time name="total">    0.18    0.19</time>
   <energy>
    <i name="e_fr_energy">    -76.94471238 </i>
    <i name="e_wo_entrp">    -76.94471238 </i>
    <i name="e_0_energy">    -76.94471238 </i>
   </energy>
  </scstep>
  <scstep>
   <time name="diag">    0.05    0.05</time>
   <time name="diis">    0.12    0.12</time>
   <time name="orth">    0.01    0.01</time>
   <time name="total">    0.20    0.20</time>
   <energy>
    <i name="e_fr_energy">    -76.87532865 </i>
    <i name="e_wo_entrp">    -76.87532865 </i>
    <i name="e_0_energy">    -76.87532865 </i>
   </energy>
  </scstep>
  <scstep>
   <time name="diag">    0.05    0.05</time>
   <time name="diis">    0.12    0.12</time>
   <time name="orth">    0.01    0.01</time>
   <time name="total">    0.20    0.20</time>
   <energy>
    <i name="e_fr_energy">    -76.86879665 </i>
    <i name="e_wo_entrp">    -76.86879665 </i>
    <i name="e_0_energy">    -76.86879665 </i>
   </energy>
  </scstep>
  <scstep>
   <time name="diag">    0.06    0.06</time>
   <time name="diis">    0.15    0.15</time>
   <time name="orth">    0.01    0.01</time>
   <time name="total">    0.24    0.24</time>
   <energy>
    <i name="e_fr_energy">    -76.86917034 </i>
    <i name="e_wo_entrp">    -76.86917034 </i>
    <i name="e_0_energy">    -76.86917034 </i>
   </energy>
  </scstep>
  <scstep>
   <time name="diag">    0.05    0.05</time>
   <time name="diis">    0.13    0.13</time>
   <time name="orth">    0.01    0.01</time>
   <time name="total">    0.22    0.22</time>
   <energy>
    <i name="e_fr_energy">    -76.86960892 </i>
    <i name="e_wo_entrp">    -76.86960892 </i>
    <i name="e_0_energy">    -76.86960892 </i>
   </energy>
  </scstep>
  <scstep>
   <time name="diag">    0.05    0.05</time>
   <time name="diis">    0.13    0.13</time>
   <time name="orth">    0.01    0.01</time>
   <time name="total">    0.21    0.21</time>
   <energy>
    <i name="e_fr_energy">    -76.86976597 </i>
    <i name="e_wo_entrp">    -76.86976597 </i>
    <i name="e_0_energy">    -76.86976597 </i>
   </energy>
  </scstep>
  <scstep>
   <time name="diag">    0.05    0.05</time>
   <time name="diis">    0.10    0.10</time>
   <time name="orth">    0.01    0.01</time>
   <time name="total">    0.18    0.18</time>
   <energy>
    <i name="e_fr_energy">    -76.86986211 </i>
    <i name="e_wo_entrp">    -76.86986211 </i>
    <i name="e_0_energy">    -76.86986211 </i>
   </energy>
  </scstep>
  <scstep>
   <time name="diag">    0.05    0.05</time>
   <time name="diis">    0.11    0.11</time>
   <time name="orth">    0.01    0.01</time>
   <time name="total">    0.19    0.19</time>
   <energy>
    <i name="e_fr_energy">    -76.86990629 </i>
    <i name="e_wo_entrp">    -76.86990629 </i>
    <i name="e_0_energy">    -76.86990629 </i>
   </energy>
  </scstep>
  <scstep>
   <time name="diag">    0.05    0.05</time>
   <time name="diis">    0.09    0.09</time>
   <time name="orth">    0.01    0.01</time>
   <time name="total">    0.17    0.17</time>
   <energy>
    <i name="e_fr_energy">    -76.86993332 </i>
    <i name="e_wo_entrp">    -76.86993332 </i>
    <i name="e_0_energy">    -76.86993332 </i>
   </energy>
  </scstep>
  <scstep>
   <time name="diag">    0.05    0.05</time>
   <time name="diis">    0.09    0.09</time>
   <time name="orth">    0.01    0.01</time>
   <time name="total">    0.15    0.15</time>
   <energy>
    <i name="alphaZ">     69.60760727 </i>
    <i name="ewald">  -2732.96885470 </i>
    <i name="hartreedc">   -660.72993361 </i>
    <i name="XCdc">    185.41854269 </i>
    <i name="pawpsdc">   7424.33353423 </i>
    <i name="pawaedc">  -7474.72019779 </i>
    <i name="eentropy">      0.00000000 </i>
    <i name="bandstr">   -656.89846729 </i>
    <i name="atom">   3769.08782378 </i>
    <i name="e_fr_energy">    -76.86994542 </i>
    <i name="e_wo_entrp">    -76.86994542 </i>
    <i name="e_0_energy">    -76.86994542 </i>
   </energy>
  </scstep>
  <structure>
   <crystal>
    <varray name="basis" >
     <v>       7.78522441       0.00000000       0.00000000 </v>
     <v>       0.00000000       6.14118297       0.00000000 </v>
     <v>       0.00000000       0.00000000       5.92942143 </v>
    </varray>
    <i name="volume">    283.48852927 </i>
    <varray name="rec_basis" >
     <v>       0.12844845       0.00000000       0.00000000 </v>
     <v>       0.00000000       0.16283508       0.00000000 </v>
     <v>       0.00000000       0.00000000       0.16865052 </v>
    </varray>
   </crystal>
   <varray name="positions" >
    <v>       0.00000000       0.77125314       0.52828125 </v>
    <v>       0.50000000       0.22874686       0.02828125 </v>
    <v>       0.20845417       0.60515450       0.64743491 </v>
    <v>       0.29154583       0.39484550       0.14743491 </v>
    <v>       0.70845417       0.39484550       0.14743491 </v>
    <v>       0.79154583       0.60515450       0.64743491 </v>
    <v>       0.00000000       0.80619388       0.18777543 </v>
    <v>       0.50000000       0.19380612       0.68777543 </v>
    <v>       0.00000000       0.06825331       0.67841798 </v>
    <v>       0.50000000       0.93174669       0.17841798 </v>
    <v>       0.00000000       0.43372269       0.94023318 </v>
    <v>       0.50000000       0.56627731       0.44023318 </v>
    <v>       0.26687715       0.76757000       0.00163425 </v>
    <v>       0.23312285       0.23243000       0.50163425 </v>
    <v>       0.76687715       0.23243000       0.50163425 </v>
    <v>       0.73312285       0.76757000       0.00163425 </v>
   </varray>
  </structure>
  <varray name="forces" >
   <v>       0.00000000       0.00170016       0.01013487 </v>
   <v>       0.00000000      -0.00170016       0.01013487 </v>
   <v>      -0.00605564       0.00388228      -0.00295493 </v>
   <v>       0.00605564      -0.00388228      -0.00295493 </v>
   <v>      -0.00605564      -0.00388228      -0.00295493 </v>
   <v>       0.00605564       0.00388228      -0.00295493 </v>
   <v>       0.00000000       0.00861357      -0.00980075 </v>
   <v>       0.00000000      -0.00861357      -0.00980075 </v>
   <v>       0.00000000      -0.00493907      -0.00074614 </v>
   <v>       0.00000000       0.00493907      -0.00074614 </v>
   <v>       0.00000000       0.00109292       0.00625513 </v>
   <v>       0.00000000      -0.00109292       0.00625513 </v>
   <v>       0.00442054       0.00782849       0.00003338 </v>
   <v>      -0.00442054      -0.00782849       0.00003338 </v>
   <v>       0.00442054      -0.00782849       0.00003338 </v>
   <v>      -0.00442054       0.00782849       0.00003338 </v>
  </varray>
  <varray name="stress" >
   <v>       0.07063580       0.00000000       0.00000000 </v>
   <v>       0.00000000      -0.36684810       0.00000000 </v>
   <v>       0.00000000       0.00000000       0.46729809 </v>
  </varray>
  <energy>
   <i name="e_fr_energy">    -76.86994542 </i>
   <i name="e_wo_entrp">    -76.86994542 </i>
   <i name="e_0_energy">      0.00000000 </i>
  </energy>
  <time name="totalsc">    3.48    3.51</time>
  <eigenvalues>
   <array>
    <dimension dim="1">band</dimension>
    <dimension dim="2">kpoint</dimension>
    <dimension dim="3">spin</dimension>
    <field>eigene</field>
    <field>occ</field>
    <set>
     <set comment="spin 1">
      <set comment="kpoint 1">
       <r>  -41.4373    1.0000 </r>
       <r>  -41.4373    1.0000 </r>
       <r>  -40.7067    1.0000 </r>
       <r>  -40.7064    1.0000 </r>
       <r>  -40.7059    1.0000 </r>
       <r>  -40.7056    1.0000 </r>
       <r>  -12.4581    1.0000 </r>
       <r>  -12.2455    1.0000 </r>
       <r>   -9.5200    1.0000 </r>
       <r>   -9.3288    1.0000 </r>
       <r>   -9.2938    1.0000 </r>
       <r>   -9.0504    1.0000 </r>
       <r>   -9.0452    1.0000 </r>
       <r>   -8.9222    1.0000 </r>
       <r>   -5.5439    1.0000 </r>
       <r>   -4.8317    1.0000 </r>
       <r>   -2.6016    1.0000 </r>
       <r>   -2.4779    1.0000 </r>
       <r>   -2.3292    1.0000 </r>
       <r>   -2.0189    1.0000 </r>
       <r>   -1.9731    1.0000 </r>
       <r>   -1.7996    1.0000 </r>
       <r>   -0.1733    1.0000 </r>
       <r>    0.0307    1.0000 </r>
       <r>    0.1567    1.0000 </r>
       <r>    0.6545    1.0000 </r>
       <r>    0.6597    1.0000 </r>
       <r>    0.9045    1.0000 </r>
       <r>    0.9564    1.0000 </r>
       <r>    1.2561    1.0000 </r>
       <r>    1.3789    1.0000 </r>
       <r>    1.4170    1.0000 </r>
       <r>    2.0566    1.0000 </r>
       <r>    2.1111    1.0000 </r>
       <r>    2.2270    1.0000 </r>
       <r>    2.2411    1.0000 </r>
       <r>    2.4343    1.0000 </r>
       <r>    2.6856    1.0000 </r>
       <r>    5.8904    0.0000 </r>
       <r>    5.9888    0.0000 </r>
       <r>    6.4138    0.0000 </r>
       <r>    6.4613    0.0000 </r>
       <r>    6.9386    0.0000 </r>
       <r>    7.3085    0.0000 </r>
       <r>    7.4786    0.0000 </r>
       <r>    7.6623    0.0000 </r>
       <r>    8.0236    0.0000 </r>
       <r>    8.8074    0.0000 </r>
      </set>
      <set comment="kpoint 2">
       <r>  -41.4373    1.0000 </r>
       <r>  -41.4373    1.0000 </r>
       <r>  -40.7066    1.0000 </r>
       <r>  -40.7063    1.0000 </r>
       <r>  -40.7059    1.0000 </r>
       <r>  -40.7057    1.0000 </r>
       <r>  -12.4085    1.0000 </r>
       <r>  -12.3025    1.0000 </r>
       <r>   -9.4295    1.0000 </r>
       <r>   -9.3073    1.0000 </r>
       <r>   -9.2862    1.0000 </r>
       <r>   -9.1607    1.0000 </r>
       <r>   -9.0292    1.0000 </r>
       <r>   -8.9653    1.0000 </r>
       <r>   -5.3497    1.0000 </r>
       <r>   -4.9940    1.0000 </r>
       <r>   -2.5746    1.0000 </r>
       <r>   -2.5235    1.0000 </r>
       <r>   -2.2611    1.0000 </r>
       <r>   -2.0755    1.0000 </r>
       <r>   -1.9444    1.0000 </r>
       <r>   -1.8669    1.0000 </r>
       <r>   -0.2031    1.0000 </r>
       <r>   -0.0663    1.0000 </r>
       <r>    0.4976    1.0000 </r>
       <r>    0.6647    1.0000 </r>
       <r>    0.7583    1.0000 </r>
       <r>    0.8897    1.0000 </r>
       <r>    1.2559    1.0000 </r>
       <r>    1.2575    1.0000 </r>
       <r>    1.2942    1.0000 </r>
       <r>    1.5274    1.0000 </r>
       <r>    1.7687    1.0000 </r>
       <r>    1.9011    1.0000 </r>
       <r>    2.0538    1.0000 </r>
       <r>    2.1235    1.0000 </r>
       <r>    2.3594    1.0000 </r>
       <r>    2.4501    1.0000 </r>
       <r>    6.1678    0.0000 </r>
       <r>    6.2436    0.0000 </r>
       <r>    6.5794    0.0000 </r>
       <r>    6.8208    0.0000 </r>
       <r>    6.9623    0.0000 </r>
       <r>    7.3044    0.0000 </r>
       <r>    7.3890    0.0000 </r>
       <r>    7.4750    0.0000 </r>
       <r>    8.2960    0.0000 </r>
       <r>    8.8692    0.0000 </r>
      </set>
      <set comment="kpoint 3">
       <r>  -41.4373    1.0000 </r>
       <r>  -41.4373    1.0000 </r>
       <r>  -40.7066    1.0000 </r>
       <r>  -40.7064    1.0000 </r>
       <r>  -40.7059    1.0000 </r>
       <r>  -40.7057    1.0000 </r>
       <r>  -12.3987    1.0000 </r>
       <r>  -12.2593    1.0000 </r>
       <r>   -9.5112    1.0000 </r>
       <r>   -9.4438    1.0000 </r>
       <r>   -9.3277    1.0000 </r>
       <r>   -9.0969    1.0000 </r>
       <r>   -9.0540    1.0000 </r>
       <r>   -8.9286    1.0000 </r>
       <r>   -5.3331    1.0000 </r>
       <r>   -4.7798    1.0000 </r>
       <r>   -2.6315    1.0000 </r>
       <r>   -2.4120    1.0000 </r>
       <r>   -2.2259    1.0000 </r>
       <r>   -2.0925    1.0000 </r>
       <r>   -1.8987    1.0000 </r>
       <r>   -1.8048    1.0000 </r>
       <r>   -0.1873    1.0000 </r>
       <r>    0.0452    1.0000 </r>
       <r>    0.3501    1.0000 </r>
       <r>    0.3897    1.0000 </r>
       <r>    0.6043    1.0000 </r>
       <r>    0.8250    1.0000 </r>
       <r>    1.0898    1.0000 </r>
       <r>    1.3384    1.0000 </r>
       <r>    1.5793    1.0000 </r>
       <r>    1.6407    1.0000 </r>
       <r>    1.8032    1.0000 </r>
       <r>    1.9135    1.0000 </r>
       <r>    2.0597    1.0000 </r>
       <r>    2.1625    1.0000 </r>
       <r>    2.4263    1.0000 </r>
       <r>    2.5964    1.0000 </r>
       <r>    5.6546    0.0000 </r>
       <r>    6.2869    0.0000 </r>
       <r>    6.4224    0.0000 </r>
       <r>    6.4735    0.0000 </r>
       <r>    7.0295    0.0000 </r>
       <r>    7.1626    0.0000 </r>
       <r>    7.1641    0.0000 </r>
       <r>    7.5745    0.0000 </r>
       <r>    8.2960    0.0000 </r>
       <r>    8.6818    0.0000 </r>
      </set>
      <set comment="kpoint 4">
       <r>  -41.4373    1.0000 </r>
       <r>  -41.4373    1.0000 </r>
       <r>  -40.7065    1.0000 </r>
       <r>  -40.7064    1.0000 </r>
       <r>  -40.7059    1.0000 </r>
       <r>  -40.7058    1.0000 </r>
       <r>  -12.3647    1.0000 </r>
       <r>  -12.2950    1.0000 </r>
       <r>   -9.5004    1.0000 </r>
       <r>   -9.4576    1.0000 </r>
       <r>   -9.2712    1.0000 </r>
       <r>   -9.1450    1.0000 </r>
       <r>   -9.0340    1.0000 </r>
       <r>   -8.9697    1.0000 </r>
       <r>   -5.1797    1.0000 </r>
       <r>   -4.9032    1.0000 </r>
       <r>   -2.5588    1.0000 </r>
       <r>   -2.4494    1.0000 </r>
       <r>   -2.1911    1.0000 </r>
       <r>   -2.1700    1.0000 </r>
       <r>   -1.8304    1.0000 </r>
       <r>   -1.8157    1.0000 </r>
       <r>   -0.0562    1.0000 </r>
       <r>   -0.0061    1.0000 </r>
       <r>    0.1835    1.0000 </r>
       <r>    0.4078    1.0000 </r>
       <r>    0.6513    1.0000 </r>
       <r>    0.7893    1.0000 </r>
       <r>    0.9399    1.0000 </r>
       <r>    1.1362    1.0000 </r>
       <r>    1.6169    1.0000 </r>
       <r>    1.7580    1.0000 </r>
       <r>    1.8164    1.0000 </r>
       <r>    1.9166    1.0000 </r>
       <r>    2.0750    1.0000 </r>
       <r>    2.2213    1.0000 </r>
       <r>    2.3553    1.0000 </r>
       <r>    2.5545    1.0000 </r>
       <r>    5.8745    0.0000 </r>
       <r>    6.1259    0.0000 </r>
       <r>    6.6081    0.0000 </r>
       <r>    6.6580    0.0000 </r>
       <r>    7.1207    0.0000 </r>
       <r>    7.1724    0.0000 </r>
       <r>    7.3996    0.0000 </r>
       <r>    7.5144    0.0000 </r>
       <r>    8.4619    0.0000 </r>
       <r>    8.7164    0.0000 </r>
      </set>
      <set comment="kpoint 5">
       <r>  -41.4373    1.0000 </r>
       <r>  -41.4373    1.0000 </r>
       <r>  -40.7066    1.0000 </r>
       <r>  -40.7064    1.0000 </r>
       <r>  -40.7058    1.0000 </r>
       <r>  -40.7057    1.0000 </r>
       <r>  -12.3630    1.0000 </r>
       <r>  -12.2507    1.0000 </r>
       <r>   -9.4657    1.0000 </r>
       <r>   -9.3813    1.0000 </r>
       <r>   -9.3492    1.0000 </r>
       <r>   -9.1802    1.0000 </r>
       <r>   -9.0832    1.0000 </r>
       <r>   -9.0797    1.0000 </r>
       <r>   -5.2663    1.0000 </r>
       <r>   -4.8679    1.0000 </r>
       <r>   -2.3118    1.0000 </r>
       <r>   -2.0988    1.0000 </r>
       <r>   -2.0860    1.0000 </r>
       <r>   -2.0692    1.0000 </r>
       <r>   -2.0190    1.0000 </r>
       <r>   -1.8591    1.0000 </r>
       <r>    0.0086    1.0000 </r>
       <r>    0.0654    1.0000 </r>
       <r>    0.1461    1.0000 </r>
       <r>    0.1624    1.0000 </r>
       <r>    0.4627    1.0000 </r>
       <r>    0.7916    1.0000 </r>
       <r>    1.0311    1.0000 </r>
       <r>    1.3251    1.0000 </r>
       <r>    1.5328    1.0000 </r>
       <r>    1.6409    1.0000 </r>
       <r>    1.7461    1.0000 </r>
       <r>    1.9518    1.0000 </r>
       <r>    2.0236    1.0000 </r>
       <r>    2.3318    1.0000 </r>
       <r>    2.4803    1.0000 </r>
       <r>    2.6291    1.0000 </r>
       <r>    5.3105    0.0000 </r>
       <r>    5.8157    0.0000 </r>
       <r>    6.4577    0.0000 </r>
       <r>    6.4610    0.0000 </r>
       <r>    7.0876    0.0000 </r>
       <r>    7.2770    0.0000 </r>
       <r>    7.4412    0.0000 </r>
       <r>    7.4997    0.0000 </r>
       <r>    8.0646    0.0000 </r>
       <r>    8.9433    0.0000 </r>
      </set>
      <set comment="kpoint 6">
       <r>  -41.4373    1.0000 </r>
       <r>  -41.4373    1.0000 </r>
       <r>  -40.7065    1.0000 </r>
       <r>  -40.7063    1.0000 </r>
       <r>  -40.7059    1.0000 </r>
       <r>  -40.7058    1.0000 </r>
       <r>  -12.3345    1.0000 </r>
       <r>  -12.2782    1.0000 </r>
       <r>   -9.5122    1.0000 </r>
       <r>   -9.4378    1.0000 </r>
       <r>   -9.2723    1.0000 </r>
       <r>   -9.2113    1.0000 </r>
       <r>   -9.0627    1.0000 </r>
       <r>   -9.0407    1.0000 </r>
       <r>   -5.1724    1.0000 </r>
       <r>   -4.9731    1.0000 </r>
       <r>   -2.3139    1.0000 </r>
       <r>   -2.2592    1.0000 </r>
       <r>   -2.1162    1.0000 </r>
       <r>   -1.9859    1.0000 </r>
       <r>   -1.8792    1.0000 </r>
       <r>   -1.8497    1.0000 </r>
       <r>   -0.0070    1.0000 </r>
       <r>    0.0484    1.0000 </r>
       <r>    0.3074    1.0000 </r>
       <r>    0.4521    1.0000 </r>
       <r>    0.4760    1.0000 </r>
       <r>    0.7201    1.0000 </r>
       <r>    1.0939    1.0000 </r>
       <r>    1.1992    1.0000 </r>
       <r>    1.4800    1.0000 </r>
       <r>    1.6351    1.0000 </r>
       <r>    1.6427    1.0000 </r>
       <r>    1.7634    1.0000 </r>
       <r>    1.7714    1.0000 </r>
       <r>    2.0467    1.0000 </r>
       <r>    2.5670    1.0000 </r>
       <r>    2.6273    1.0000 </r>
       <r>    5.5657    0.0000 </r>
       <r>    5.8245    0.0000 </r>
       <r>    6.7207    0.0000 </r>
       <r>    6.7529    0.0000 </r>
       <r>    7.1321    0.0000 </r>
       <r>    7.1398    0.0000 </r>
       <r>    7.5264    0.0000 </r>
       <r>    7.5975    0.0000 </r>
       <r>    8.1504    0.0000 </r>
       <r>    8.5996    0.0000 </r>
      </set>
      <set comment="kpoint 7">
       <r>  -41.4373    1.0000 </r>
       <r>  -41.4373    1.0000 </r>
       <r>  -40.7065    1.0000 </r>
       <r>  -40.7065    1.0000 </r>
       <r>  -40.7058    1.0000 </r>
       <r>  -40.7057    1.0000 </r>
       <r>  -12.3181    1.0000 </r>
       <r>  -12.2443    1.0000 </r>
       <r>   -9.4723    1.0000 </r>
       <r>   -9.4137    1.0000 </r>
       <r>   -9.3753    1.0000 </r>
       <r>   -9.2620    1.0000 </r>
       <r>   -9.1459    1.0000 </r>
       <r>   -9.0847    1.0000 </r>
       <r>   -5.0660    1.0000 </r>
       <r>   -4.7644    1.0000 </r>
       <r>   -2.2878    1.0000 </r>
       <r>   -2.2509    1.0000 </r>
       <r>   -2.0937    1.0000 </r>
       <r>   -2.0609    1.0000 </r>
       <r>   -1.8914    1.0000 </r>
       <r>   -1.7358    1.0000 </r>
       <r>   -0.0069    1.0000 </r>
       <r>    0.1643    1.0000 </r>
       <r>    0.3224    1.0000 </r>
       <r>    0.4617    1.0000 </r>
       <r>    0.5934    1.0000 </r>
       <r>    0.7442    1.0000 </r>
       <r>    0.8355    1.0000 </r>
       <r>    1.1244    1.0000 </r>
       <r>    1.2148    1.0000 </r>
       <r>    1.2254    1.0000 </r>
       <r>    1.6549    1.0000 </r>
       <r>    2.1002    1.0000 </r>
       <r>    2.1376    1.0000 </r>
       <r>    2.2876    1.0000 </r>
       <r>    2.4747    1.0000 </r>
       <r>    2.4798    1.0000 </r>
       <r>    5.4665    0.0000 </r>
       <r>    5.9582    0.0000 </r>
       <r>    6.4133    0.0000 </r>
       <r>    6.8039    0.0000 </r>
       <r>    6.8060    0.0000 </r>
       <r>    6.8980    0.0000 </r>
       <r>    7.1329    0.0000 </r>
       <r>    7.2362    0.0000 </r>
       <r>    8.4454    0.0000 </r>
       <r>    8.8558    0.0000 </r>
      </set>
      <set comment="kpoint 8">
       <r>  -41.4373    1.0000 </r>
       <r>  -41.4373    1.0000 </r>
       <r>  -40.7064    1.0000 </r>
       <r>  -40.7064    1.0000 </r>
       <r>  -40.7059    1.0000 </r>
       <r>  -40.7058    1.0000 </r>
       <r>  -12.2988    1.0000 </r>
       <r>  -12.2618    1.0000 </r>
       <r>   -9.4711    1.0000 </r>
       <r>   -9.4396    1.0000 </r>
       <r>   -9.3545    1.0000 </r>
       <r>   -9.2958    1.0000 </r>
       <r>   -9.1212    1.0000 </r>
       <r>   -9.0835    1.0000 </r>
       <r>   -4.9720    1.0000 </r>
       <r>   -4.8202    1.0000 </r>
       <r>   -2.2842    1.0000 </r>
       <r>   -2.2311    1.0000 </r>
       <r>   -2.0914    1.0000 </r>
       <r>   -1.9832    1.0000 </r>
       <r>   -1.8655    1.0000 </r>
       <r>   -1.7745    1.0000 </r>
       <r>   -0.1145    1.0000 </r>
       <r>    0.0519    1.0000 </r>
       <r>    0.2314    1.0000 </r>
       <r>    0.4019    1.0000 </r>
       <r>    0.6036    1.0000 </r>
       <r>    0.6312    1.0000 </r>
       <r>    0.9791    1.0000 </r>
       <r>    1.0460    1.0000 </r>
       <r>    1.3153    1.0000 </r>
       <r>    1.3814    1.0000 </r>
       <r>    1.6366    1.0000 </r>
       <r>    1.9213    1.0000 </r>
       <r>    2.1501    1.0000 </r>
       <r>    2.2131    1.0000 </r>
       <r>    2.4714    1.0000 </r>
       <r>    2.5824    1.0000 </r>
       <r>    5.6334    0.0000 </r>
       <r>    5.9030    0.0000 </r>
       <r>    6.6325    0.0000 </r>
       <r>    6.6565    0.0000 </r>
       <r>    6.9175    0.0000 </r>
       <r>    7.0766    0.0000 </r>
       <r>    7.2679    0.0000 </r>
       <r>    7.3646    0.0000 </r>
       <r>    8.5570    0.0000 </r>
       <r>    8.9185    0.0000 </r>
      </set>
     </set>
    </set>
   </array>
  </eigenvalues>
  <separator name="orbital magnetization" >
   <v name="MAGDIPOLOUT">      0.00000000      0.00000000      0.00000000</v>
  </separator>
  <dos>
   <i name="efermi">      2.68769825 </i>
   <total>
    <array>
     <dimension dim="1">gridpoints</dimension>
     <dimension dim="2">spin</dimension>
     <field>energy</field>
     <field>total</field>
     <field>integrated</field>
     <set>
      <set comment="spin 1">
       <r>   -43.9564     0.0000     0.0000 </r>
       <r>   -43.7716     0.0000     0.0000 </r>
       <r>   -43.5869     0.0000     0.0000 </r>
       <r>   -43.4022     0.0000     0.0000 </r>
       <r>   -43.2175     0.0000     0.0000 </r>
       <r>   -43.0327     0.0000     0.0000 </r>
       <r>   -42.8480     0.0000     0.0000 </r>
       <r>   -42.6633     0.0000     0.0000 </r>
       <r>   -42.4785     0.0000     0.0000 </r>
       <r>   -42.2938     0.0000     0.0000 </r>
       <r>   -42.1091     0.0000     0.0000 </r>
       <r>   -41.9244     0.0000     0.0000 </r>
       <r>   -41.7396     0.0000     0.0000 </r>
       <r>   -41.5549     0.0000     0.0000 </r>
       <r>   -41.3702     0.0000     4.0000 </r>
       <r>   -41.1854     0.0000     4.0000 </r>
       <r>   -41.0007     0.0000     4.0000 </r>
       <r>   -40.8160     0.0000     4.0000 </r>
       <r>   -40.6312     0.0000    12.0000 </r>
       <r>   -40.4465     0.0000    12.0000 </r>
       <r>   -40.2618     0.0000    12.0000 </r>
       <r>   -40.0771     0.0000    12.0000 </r>
       <r>   -39.8923     0.0000    12.0000 </r>
       <r>   -39.7076     0.0000    12.0000 </r>
       <r>   -39.5229     0.0000    12.0000 </r>
       <r>   -39.3381     0.0000    12.0000 </r>
       <r>   -39.1534     0.0000    12.0000 </r>
       <r>   -38.9687     0.0000    12.0000 </r>
       <r>   -38.7840     0.0000    12.0000 </r>
       <r>   -38.5992     0.0000    12.0000 </r>
       <r>   -38.4145     0.0000    12.0000 </r>
       <r>   -38.2298     0.0000    12.0000 </r>
       <r>   -38.0450     0.0000    12.0000 </r>
       <r>   -37.8603     0.0000    12.0000 </r>
       <r>   -37.6756     0.0000    12.0000 </r>
       <r>   -37.4909     0.0000    12.0000 </r>
       <r>   -37.3061     0.0000    12.0000 </r>
       <r>   -37.1214     0.0000    12.0000 </r>
       <r>   -36.9367     0.0000    12.0000 </r>
       <r>   -36.7519     0.0000    12.0000 </r>
       <r>   -36.5672     0.0000    12.0000 </r>
       <r>   -36.3825     0.0000    12.0000 </r>
       <r>   -36.1978     0.0000    12.0000 </r>
       <r>   -36.0130     0.0000    12.0000 </r>
       <r>   -35.8283     0.0000    12.0000 </r>
       <r>   -35.6436     0.0000    12.0000 </r>
       <r>   -35.4588     0.0000    12.0000 </r>
       <r>   -35.2741     0.0000    12.0000 </r>
       <r>   -35.0894     0.0000    12.0000 </r>
       <r>   -34.9047     0.0000    12.0000 </r>
       <r>   -34.7199     0.0000    12.0000 </r>
       <r>   -34.5352     0.0000    12.0000 </r>
       <r>   -34.3505     0.0000    12.0000 </r>
       <r>   -34.1657     0.0000    12.0000 </r>
       <r>   -33.9810     0.0000    12.0000 </r>
       <r>   -33.7963     0.0000    12.0000 </r>
       <r>   -33.6115     0.0000    12.0000 </r>
       <r>   -33.4268     0.0000    12.0000 </r>
       <r>   -33.2421     0.0000    12.0000 </r>
       <r>   -33.0574     0.0000    12.0000 </r>
       <r>   -32.8726     0.0000    12.0000 </r>
       <r>   -32.6879     0.0000    12.0000 </r>
       <r>   -32.5032     0.0000    12.0000 </r>
       <r>   -32.3184     0.0000    12.0000 </r>
       <r>   -32.1337     0.0000    12.0000 </r>
       <r>   -31.9490     0.0000    12.0000 </r>
       <r>   -31.7643     0.0000    12.0000 </r>
       <r>   -31.5795     0.0000    12.0000 </r>
       <r>   -31.3948     0.0000    12.0000 </r>
       <r>   -31.2101     0.0000    12.0000 </r>
       <r>   -31.0253     0.0000    12.0000 </r>
       <r>   -30.8406     0.0000    12.0000 </r>
       <r>   -30.6559     0.0000    12.0000 </r>
       <r>   -30.4712     0.0000    12.0000 </r>
       <r>   -30.2864     0.0000    12.0000 </r>
       <r>   -30.1017     0.0000    12.0000 </r>
       <r>   -29.9170     0.0000    12.0000 </r>
       <r>   -29.7322     0.0000    12.0000 </r>
       <r>   -29.5475     0.0000    12.0000 </r>
       <r>   -29.3628     0.0000    12.0000 </r>
       <r>   -29.1781     0.0000    12.0000 </r>
       <r>   -28.9933     0.0000    12.0000 </r>
       <r>   -28.8086     0.0000    12.0000 </r>
       <r>   -28.6239     0.0000    12.0000 </r>
       <r>   -28.4391     0.0000    12.0000 </r>
       <r>   -28.2544     0.0000    12.0000 </r>
       <r>   -28.0697     0.0000    12.0000 </r>
       <r>   -27.8849     0.0000    12.0000 </r>
       <r>   -27.7002     0.0000    12.0000 </r>
       <r>   -27.5155     0.0000    12.0000 </r>
       <r>   -27.3308     0.0000    12.0000 </r>
       <r>   -27.1460     0.0000    12.0000 </r>
       <r>   -26.9613     0.0000    12.0000 </r>
       <r>   -26.7766     0.0000    12.0000 </r>
       <r>   -26.5918     0.0000    12.0000 </r>
       <r>   -26.4071     0.0000    12.0000 </r>
       <r>   -26.2224     0.0000    12.0000 </r>
       <r>   -26.0377     0.0000    12.0000 </r>
       <r>   -25.8529     0.0000    12.0000 </r>
       <r>   -25.6682     0.0000    12.0000 </r>
       <r>   -25.4835     0.0000    12.0000 </r>
       <r>   -25.2987     0.0000    12.0000 </r>
       <r>   -25.1140     0.0000    12.0000 </r>
       <r>   -24.9293     0.0000    12.0000 </r>
       <r>   -24.7446     0.0000    12.0000 </r>
       <r>   -24.5598     0.0000    12.0000 </r>
       <r>   -24.3751     0.0000    12.0000 </r>
       <r>   -24.1904     0.0000    12.0000 </r>
       <r>   -24.0056     0.0000    12.0000 </r>
       <r>   -23.8209     0.0000    12.0000 </r>
       <r>   -23.6362     0.0000    12.0000 </r>
       <r>   -23.4515     0.0000    12.0000 </r>
       <r>   -23.2667     0.0000    12.0000 </r>
       <r>   -23.0820     0.0000    12.0000 </r>
       <r>   -22.8973     0.0000    12.0000 </r>
       <r>   -22.7125     0.0000    12.0000 </r>
       <r>   -22.5278     0.0000    12.0000 </r>
       <r>   -22.3431     0.0000    12.0000 </r>
       <r>   -22.1584     0.0000    12.0000 </r>
       <r>   -21.9736     0.0000    12.0000 </r>
       <r>   -21.7889     0.0000    12.0000 </r>
       <r>   -21.6042     0.0000    12.0000 </r>
       <r>   -21.4194     0.0000    12.0000 </r>
       <r>   -21.2347     0.0000    12.0000 </r>
       <r>   -21.0500     0.0000    12.0000 </r>
       <r>   -20.8652     0.0000    12.0000 </r>
       <r>   -20.6805     0.0000    12.0000 </r>
       <r>   -20.4958     0.0000    12.0000 </r>
       <r>   -20.3111     0.0000    12.0000 </r>
       <r>   -20.1263     0.0000    12.0000 </r>
       <r>   -19.9416     0.0000    12.0000 </r>
       <r>   -19.7569     0.0000    12.0000 </r>
       <r>   -19.5721     0.0000    12.0000 </r>
       <r>   -19.3874     0.0000    12.0000 </r>
       <r>   -19.2027     0.0000    12.0000 </r>
       <r>   -19.0180     0.0000    12.0000 </r>
       <r>   -18.8332     0.0000    12.0000 </r>
       <r>   -18.6485     0.0000    12.0000 </r>
       <r>   -18.4638     0.0000    12.0000 </r>
       <r>   -18.2790     0.0000    12.0000 </r>
       <r>   -18.0943     0.0000    12.0000 </r>
       <r>   -17.9096     0.0000    12.0000 </r>
       <r>   -17.7249     0.0000    12.0000 </r>
       <r>   -17.5401     0.0000    12.0000 </r>
       <r>   -17.3554     0.0000    12.0000 </r>
       <r>   -17.1707     0.0000    12.0000 </r>
       <r>   -16.9859     0.0000    12.0000 </r>
       <r>   -16.8012     0.0000    12.0000 </r>
       <r>   -16.6165     0.0000    12.0000 </r>
       <r>   -16.4318     0.0000    12.0000 </r>
       <r>   -16.2470     0.0000    12.0000 </r>
       <r>   -16.0623     0.0000    12.0000 </r>
       <r>   -15.8776     0.0000    12.0000 </r>
       <r>   -15.6928     0.0000    12.0000 </r>
       <r>   -15.5081     0.0000    12.0000 </r>
       <r>   -15.3234     0.0000    12.0000 </r>
       <r>   -15.1386     0.0000    12.0000 </r>
       <r>   -14.9539     0.0000    12.0000 </r>
       <r>   -14.7692     0.0000    12.0000 </r>
       <r>   -14.5845     0.0000    12.0000 </r>
       <r>   -14.3997     0.0000    12.0000 </r>
       <r>   -14.2150     0.0000    12.0000 </r>
       <r>   -14.0303     0.0000    12.0000 </r>
       <r>   -13.8455     0.0000    12.0000 </r>
       <r>   -13.6608     0.0000    12.0000 </r>
       <r>   -13.4761     0.0000    12.0000 </r>
       <r>   -13.2914     0.0000    12.0000 </r>
       <r>   -13.1066     0.0000    12.0000 </r>
       <r>   -12.9219     0.0000    12.0000 </r>
       <r>   -12.7372     0.0000    12.0000 </r>
       <r>   -12.5524     0.0000    12.0000 </r>
       <r>   -12.3677    14.9347    12.4215 </r>
       <r>   -12.1830     0.0000    16.0000 </r>
       <r>   -11.9983     0.0000    16.0000 </r>
       <r>   -11.8135     0.0000    16.0000 </r>
       <r>   -11.6288     0.0000    16.0000 </r>
       <r>   -11.4441     0.0000    16.0000 </r>
       <r>   -11.2593     0.0000    16.0000 </r>
       <r>   -11.0746     0.0000    16.0000 </r>
       <r>   -10.8899     0.0000    16.0000 </r>
       <r>   -10.7052     0.0000    16.0000 </r>
       <r>   -10.5204     0.0000    16.0000 </r>
       <r>   -10.3357     0.0000    16.0000 </r>
       <r>   -10.1510     0.0000    16.0000 </r>
       <r>    -9.9662     0.0000    16.0000 </r>
       <r>    -9.7815     0.0000    16.0000 </r>
       <r>    -9.5968     0.0000    16.0000 </r>
       <r>    -9.4121    15.9363    19.4341 </r>
       <r>    -9.2273    13.2752    22.8432 </r>
       <r>    -9.0426    31.2251    26.8762 </r>
       <r>    -8.8579     0.0000    28.0000 </r>
       <r>    -8.6731     0.0000    28.0000 </r>
       <r>    -8.4884     0.0000    28.0000 </r>
       <r>    -8.3037     0.0000    28.0000 </r>
       <r>    -8.1189     0.0000    28.0000 </r>
       <r>    -7.9342     0.0000    28.0000 </r>
       <r>    -7.7495     0.0000    28.0000 </r>
       <r>    -7.5648     0.0000    28.0000 </r>
       <r>    -7.3800     0.0000    28.0000 </r>
       <r>    -7.1953     0.0000    28.0000 </r>
       <r>    -7.0106     0.0000    28.0000 </r>
       <r>    -6.8258     0.0000    28.0000 </r>
       <r>    -6.6411     0.0000    28.0000 </r>
       <r>    -6.4564     0.0000    28.0000 </r>
       <r>    -6.2717     0.0000    28.0000 </r>
       <r>    -6.0869     0.0000    28.0000 </r>
       <r>    -5.9022     0.0000    28.0000 </r>
       <r>    -5.7175     0.0000    28.0000 </r>
       <r>    -5.5327     0.0039    28.0000 </r>
       <r>    -5.3480     1.2068    28.0778 </r>
       <r>    -5.1633     7.4399    28.8245 </r>
       <r>    -4.9786     5.5055    29.9220 </r>
       <r>    -4.7938     9.6356    31.7945 </r>
       <r>    -4.6091     0.0000    32.0000 </r>
       <r>    -4.4244     0.0000    32.0000 </r>
       <r>    -4.2396     0.0000    32.0000 </r>
       <r>    -4.0549     0.0000    32.0000 </r>
       <r>    -3.8702     0.0000    32.0000 </r>
       <r>    -3.6855     0.0000    32.0000 </r>
       <r>    -3.5007     0.0000    32.0000 </r>
       <r>    -3.3160     0.0000    32.0000 </r>
       <r>    -3.1313     0.0000    32.0000 </r>
       <r>    -2.9465     0.0000    32.0000 </r>
       <r>    -2.7618     0.0000    32.0000 </r>
       <r>    -2.5771     2.2828    32.0512 </r>
       <r>    -2.3923    10.4335    33.2650 </r>
       <r>    -2.2076     9.6543    36.0659 </r>
       <r>    -2.0229    14.6866    39.3147 </r>
       <r>    -1.8382    23.5502    42.2266 </r>
       <r>    -1.6534     0.0000    44.0000 </r>
       <r>    -1.4687     0.0000    44.0000 </r>
       <r>    -1.2840     0.0000    44.0000 </r>
       <r>    -1.0992     0.0000    44.0000 </r>
       <r>    -0.9145     0.0000    44.0000 </r>
       <r>    -0.7298     0.0000    44.0000 </r>
       <r>    -0.5451     0.0000    44.0000 </r>
       <r>    -0.3603     0.0000    44.0000 </r>
       <r>    -0.1756     2.5792    44.0274 </r>
       <r>     0.0091    11.1544    46.2936 </r>
       <r>     0.1939     7.9706    48.1264 </r>
       <r>     0.3786     4.6104    50.1561 </r>
       <r>     0.5633     9.7121    52.4149 </r>
       <r>     0.7480    11.8576    55.0998 </r>
       <r>     0.9328     5.3620    56.2908 </r>
       <r>     1.1175    13.6117    58.5030 </r>
       <r>     1.3022     8.6800    60.3264 </r>
       <r>     1.4870    11.3971    62.4482 </r>
       <r>     1.6717    12.7210    64.6070 </r>
       <r>     1.8564     7.4819    66.2524 </r>
       <r>     2.0411     8.5585    68.4711 </r>
       <r>     2.2259    12.1014    71.4034 </r>
       <r>     2.4106     9.7930    72.3540 </r>
       <r>     2.5953    15.0899    75.5287 </r>
       <r>     2.7801     0.0000    76.0000 </r>
       <r>     2.9648     0.0000    76.0000 </r>
       <r>     3.1495     0.0000    76.0000 </r>
       <r>     3.3342     0.0000    76.0000 </r>
       <r>     3.5190     0.0000    76.0000 </r>
       <r>     3.7037     0.0000    76.0000 </r>
       <r>     3.8884     0.0000    76.0000 </r>
       <r>     4.0732     0.0000    76.0000 </r>
       <r>     4.2579     0.0000    76.0000 </r>
       <r>     4.4426     0.0000    76.0000 </r>
       <r>     4.6274     0.0000    76.0000 </r>
       <r>     4.8121     0.0000    76.0000 </r>
       <r>     4.9968     0.0000    76.0000 </r>
       <r>     5.1815     0.0000    76.0000 </r>
       <r>     5.3663     0.5410    76.0144 </r>
       <r>     5.5510     4.3225    76.4290 </r>
       <r>     5.7357     3.5122    77.4391 </r>
       <r>     5.9205     9.4421    78.5937 </r>
       <r>     6.1052     4.3763    79.6815 </r>
       <r>     6.2899     0.0000    80.0000 </r>
       <r>     6.4746     7.1889    80.3227 </r>
       <r>     6.6594    16.0640    82.6595 </r>
       <r>     6.8441     2.3825    84.0695 </r>
       <r>     7.0288    12.3901    85.6006 </r>
       <r>     7.2136     9.3384    87.9984 </r>
       <r>     7.3983    13.7153    90.0928 </r>
       <r>     7.5830     3.0458    91.9370 </r>
       <r>     7.7677     0.0000    92.0000 </r>
       <r>     7.9525     0.0000    92.0000 </r>
       <r>     8.1372     1.7088    92.0757 </r>
       <r>     8.3219     4.3763    92.6894 </r>
       <r>     8.5067     5.6287    93.7044 </r>
       <r>     8.6914     3.3906    94.1424 </r>
       <r>     8.8761     9.7445    95.5595 </r>
       <r>     9.0608     0.0000    96.0000 </r>
       <r>     9.2456     0.0000    96.0000 </r>
       <r>     9.4303     0.0000    96.0000 </r>
       <r>     9.6150     0.0000    96.0000 </r>
       <r>     9.7998     0.0000    96.0000 </r>
       <r>     9.9845     0.0000    96.0000 </r>
       <r>    10.1692     0.0000    96.0000 </r>
       <r>    10.3540     0.0000    96.0000 </r>
       <r>    10.5387     0.0000    96.0000 </r>
       <r>    10.7234     0.0000    96.0000 </r>
       <r>    10.9081     0.0000    96.0000 </r>
       <r>    11.0929     0.0000    96.0000 </r>
       <r>    11.2776     0.0000    96.0000 </r>
       <r>    11.4623     0.0000    96.0000 </r>
      </set>
     </set>
    </array>
   </total>
  </dos>
 </calculation>
 <structure name="finalpos" >
  <crystal>
   <varray name="basis" >
    <v>       7.78522441       0.00000000       0.00000000 </v>
    <v>       0.00000000       6.14118297       0.00000000 </v>
    <v>       0.00000000       0.00000000       5.92942143 </v>
   </varray>
   <i name="volume">    283.48852927 </i>
   <varray name="rec_basis" >
    <v>       0.12844845       0.00000000       0.00000000 </v>
    <v>       0.00000000       0.16283508       0.00000000 </v>
    <v>       0.00000000       0.00000000       0.16865052 </v>
   </varray>
  </crystal>
  <varray name="positions" >
   <v>       0.00000000       0.77125314       0.52828125 </v>
   <v>       0.50000000       0.22874686       0.02828125 </v>
   <v>       0.20845417       0.60515450       0.64743491 </v>
   <v>       0.29154583       0.39484550       0.14743491 </v>
   <v>       0.70845417       0.39484550       0.14743491 </v>
   <v>       0.79154583       0.60515450       0.64743491 </v>
   <v>       0.00000000       0.80619388       0.18777543 </v>
   <v>       0.50000000       0.19380612       0.68777543 </v>
   <v>       0.00000000       0.06825331       0.67841798 </v>
   <v>       0.50000000       0.93174669       0.17841798 </v>
   <v>       0.00000000       0.43372269       0.94023318 </v>
   <v>       0.50000000       0.56627731       0.44023318 </v>
   <v>       0.26687715       0.76757000       0.00163425 </v>
   <v>       0.23312285       0.23243000       0.50163425 </v>
   <v>       0.76687715       0.23243000       0.50163425 </v>
   <v>       0.73312285       0.76757000       0.00163425 </v>
  </varray>
 </structure>
</modeling>
