unknown system                          
           1
     7.785224    0.000000    0.000000
     0.000000    6.141183    0.000000
     0.000000    0.000000    5.929421
   P    S    Li
   2   8   6
Direct configuration=     1
   0.00000000  0.77125314  0.52828125
   0.50000000  0.22874686  0.02828125
   0.20845417  0.60515450  0.64743491
   0.29154583  0.39484550  0.14743491
   0.70845417  0.39484550  0.14743491
   0.79154583  0.60515450  0.64743491
   0.00000000  0.80619388  0.18777543
   0.50000000  0.19380612  0.68777543
   0.00000000  0.06825331  0.67841798
   0.50000000  0.93174669  0.17841798
   0.00000000  0.43372269  0.94023318
   0.50000000  0.56627731  0.44023318
   0.26687715  0.76757000  0.00163425
   0.23312285  0.23243000  0.50163425
   0.76687715  0.23243000  0.50163425
   0.73312285  0.76757000  0.00163425
