  16  16   0   0
  0.1775006E+02  0.7801052E-09  0.6138096E-09  0.5931068E-09  0.5000000E-15
  1.000000000000000E-004
  CAR 
 unknown system                          
     11.22303243    -43.87597074  301      2.82043445      1.00000000
    -43.876  0.0000E+00  0.0000E+00
    -43.692  0.0000E+00  0.0000E+00
    -43.509  0.0000E+00  0.0000E+00
    -43.325  0.0000E+00  0.0000E+00
    -43.141  0.0000E+00  0.0000E+00
    -42.958  0.0000E+00  0.0000E+00
    -42.774  0.0000E+00  0.0000E+00
    -42.590  0.0000E+00  0.0000E+00
    -42.407  0.0000E+00  0.0000E+00
    -42.223  0.0000E+00  0.0000E+00
    -42.039  0.0000E+00  0.0000E+00
    -41.856  0.0000E+00  0.0000E+00
    -41.672  0.0000E+00  0.0000E+00
    -41.488  0.0000E+00  0.0000E+00
    -41.305  0.0000E+00  0.4000E-01
    -41.121  0.0000E+00  0.4000E-01
    -40.937  0.0000E+00  0.4000E-01
    -40.754  0.0000E+00  0.4000E-01
    -40.570  0.0000E+00  0.1200E+00
    -40.386  0.0000E+00  0.1200E+00
    -40.203  0.0000E+00  0.1200E+00
    -40.019  0.0000E+00  0.1200E+00
    -39.835  0.0000E+00  0.1200E+00
    -39.652  0.0000E+00  0.1200E+00
    -39.468  0.0000E+00  0.1200E+00
    -39.284  0.0000E+00  0.1200E+00
    -39.101  0.0000E+00  0.1200E+00
    -38.917  0.0000E+00  0.1200E+00
    -38.733  0.0000E+00  0.1200E+00
    -38.550  0.0000E+00  0.1200E+00
    -38.366  0.0000E+00  0.1200E+00
    -38.182  0.0000E+00  0.1200E+00
    -37.999  0.0000E+00  0.1200E+00
    -37.815  0.0000E+00  0.1200E+00
    -37.631  0.0000E+00  0.1200E+00
    -37.448  0.0000E+00  0.1200E+00
    -37.264  0.0000E+00  0.1200E+00
    -37.080  0.0000E+00  0.1200E+00
    -36.897  0.0000E+00  0.1200E+00
    -36.713  0.0000E+00  0.1200E+00
    -36.529  0.0000E+00  0.1200E+00
    -36.346  0.0000E+00  0.1200E+00
    -36.162  0.0000E+00  0.1200E+00
    -35.978  0.0000E+00  0.1200E+00
    -35.795  0.0000E+00  0.1200E+00
    -35.611  0.0000E+00  0.1200E+00
    -35.427  0.0000E+00  0.1200E+00
    -35.244  0.0000E+00  0.1200E+00
    -35.060  0.0000E+00  0.1200E+00
    -34.876  0.0000E+00  0.1200E+00
    -34.693  0.0000E+00  0.1200E+00
    -34.509  0.0000E+00  0.1200E+00
    -34.325  0.0000E+00  0.1200E+00
    -34.142  0.0000E+00  0.1200E+00
    -33.958  0.0000E+00  0.1200E+00
    -33.774  0.0000E+00  0.1200E+00
    -33.591  0.0000E+00  0.1200E+00
    -33.407  0.0000E+00  0.1200E+00
    -33.223  0.0000E+00  0.1200E+00
    -33.040  0.0000E+00  0.1200E+00
    -32.856  0.0000E+00  0.1200E+00
    -32.673  0.0000E+00  0.1200E+00
    -32.489  0.0000E+00  0.1200E+00
    -32.305  0.0000E+00  0.1200E+00
    -32.122  0.0000E+00  0.1200E+00
    -31.938  0.0000E+00  0.1200E+00
    -31.754  0.0000E+00  0.1200E+00
    -31.571  0.0000E+00  0.1200E+00
    -31.387  0.0000E+00  0.1200E+00
    -31.203  0.0000E+00  0.1200E+00
    -31.020  0.0000E+00  0.1200E+00
    -30.836  0.0000E+00  0.1200E+00
    -30.652  0.0000E+00  0.1200E+00
    -30.469  0.0000E+00  0.1200E+00
    -30.285  0.0000E+00  0.1200E+00
    -30.101  0.0000E+00  0.1200E+00
    -29.918  0.0000E+00  0.1200E+00
    -29.734  0.0000E+00  0.1200E+00
    -29.550  0.0000E+00  0.1200E+00
    -29.367  0.0000E+00  0.1200E+00
    -29.183  0.0000E+00  0.1200E+00
    -28.999  0.0000E+00  0.1200E+00
    -28.816  0.0000E+00  0.1200E+00
    -28.632  0.0000E+00  0.1200E+00
    -28.448  0.0000E+00  0.1200E+00
    -28.265  0.0000E+00  0.1200E+00
    -28.081  0.0000E+00  0.1200E+00
    -27.897  0.0000E+00  0.1200E+00
    -27.714  0.0000E+00  0.1200E+00
    -27.530  0.0000E+00  0.1200E+00
    -27.346  0.0000E+00  0.1200E+00
    -27.163  0.0000E+00  0.1200E+00
    -26.979  0.0000E+00  0.1200E+00
    -26.795  0.0000E+00  0.1200E+00
    -26.612  0.0000E+00  0.1200E+00
    -26.428  0.0000E+00  0.1200E+00
    -26.244  0.0000E+00  0.1200E+00
    -26.061  0.0000E+00  0.1200E+00
    -25.877  0.0000E+00  0.1200E+00
    -25.693  0.0000E+00  0.1200E+00
    -25.510  0.0000E+00  0.1200E+00
    -25.326  0.0000E+00  0.1200E+00
    -25.142  0.0000E+00  0.1200E+00
    -24.959  0.0000E+00  0.1200E+00
    -24.775  0.0000E+00  0.1200E+00
    -24.591  0.0000E+00  0.1200E+00
    -24.408  0.0000E+00  0.1200E+00
    -24.224  0.0000E+00  0.1200E+00
    -24.040  0.0000E+00  0.1200E+00
    -23.857  0.0000E+00  0.1200E+00
    -23.673  0.0000E+00  0.1200E+00
    -23.489  0.0000E+00  0.1200E+00
    -23.306  0.0000E+00  0.1200E+00
    -23.122  0.0000E+00  0.1200E+00
    -22.938  0.0000E+00  0.1200E+00
    -22.755  0.0000E+00  0.1200E+00
    -22.571  0.0000E+00  0.1200E+00
    -22.387  0.0000E+00  0.1200E+00
    -22.204  0.0000E+00  0.1200E+00
    -22.020  0.0000E+00  0.1200E+00
    -21.836  0.0000E+00  0.1200E+00
    -21.653  0.0000E+00  0.1200E+00
    -21.469  0.0000E+00  0.1200E+00
    -21.285  0.0000E+00  0.1200E+00
    -21.102  0.0000E+00  0.1200E+00
    -20.918  0.0000E+00  0.1200E+00
    -20.734  0.0000E+00  0.1200E+00
    -20.551  0.0000E+00  0.1200E+00
    -20.367  0.0000E+00  0.1200E+00
    -20.183  0.0000E+00  0.1200E+00
    -20.000  0.0000E+00  0.1200E+00
    -19.816  0.0000E+00  0.1200E+00
    -19.632  0.0000E+00  0.1200E+00
    -19.449  0.0000E+00  0.1200E+00
    -19.265  0.0000E+00  0.1200E+00
    -19.081  0.0000E+00  0.1200E+00
    -18.898  0.0000E+00  0.1200E+00
    -18.714  0.0000E+00  0.1200E+00
    -18.530  0.0000E+00  0.1200E+00
    -18.347  0.0000E+00  0.1200E+00
    -18.163  0.0000E+00  0.1200E+00
    -17.979  0.0000E+00  0.1200E+00
    -17.796  0.0000E+00  0.1200E+00
    -17.612  0.0000E+00  0.1200E+00
    -17.428  0.0000E+00  0.1200E+00
    -17.245  0.0000E+00  0.1200E+00
    -17.061  0.0000E+00  0.1200E+00
    -16.877  0.0000E+00  0.1200E+00
    -16.694  0.0000E+00  0.1200E+00
    -16.510  0.0000E+00  0.1200E+00
    -16.326  0.0000E+00  0.1200E+00
    -16.143  0.0000E+00  0.1200E+00
    -15.959  0.0000E+00  0.1200E+00
    -15.775  0.0000E+00  0.1200E+00
    -15.592  0.0000E+00  0.1200E+00
    -15.408  0.0000E+00  0.1200E+00
    -15.224  0.0000E+00  0.1200E+00
    -15.041  0.0000E+00  0.1200E+00
    -14.857  0.0000E+00  0.1200E+00
    -14.673  0.0000E+00  0.1200E+00
    -14.490  0.0000E+00  0.1200E+00
    -14.306  0.0000E+00  0.1200E+00
    -14.123  0.0000E+00  0.1200E+00
    -13.939  0.0000E+00  0.1200E+00
    -13.755  0.0000E+00  0.1200E+00
    -13.572  0.0000E+00  0.1200E+00
    -13.388  0.0000E+00  0.1200E+00
    -13.204  0.0000E+00  0.1200E+00
    -13.021  0.0000E+00  0.1200E+00
    -12.837  0.0000E+00  0.1200E+00
    -12.653  0.0000E+00  0.1200E+00
    -12.470  0.0000E+00  0.1200E+00
    -12.286  0.1736E+00  0.1313E+00
    -12.102  0.0000E+00  0.1600E+00
    -11.919  0.0000E+00  0.1600E+00
    -11.735  0.0000E+00  0.1600E+00
    -11.551  0.0000E+00  0.1600E+00
    -11.368  0.0000E+00  0.1600E+00
    -11.184  0.0000E+00  0.1600E+00
    -11.000  0.0000E+00  0.1600E+00
    -10.817  0.0000E+00  0.1600E+00
    -10.633  0.0000E+00  0.1600E+00
    -10.449  0.0000E+00  0.1600E+00
    -10.266  0.0000E+00  0.1600E+00
    -10.082  0.0000E+00  0.1600E+00
     -9.898  0.0000E+00  0.1600E+00
     -9.715  0.0000E+00  0.1600E+00
     -9.531  0.0000E+00  0.1600E+00
     -9.347  0.9386E-01  0.1964E+00
     -9.164  0.1850E+00  0.2311E+00
     -8.980  0.1827E+00  0.2697E+00
     -8.796  0.0000E+00  0.2800E+00
     -8.613  0.0000E+00  0.2800E+00
     -8.429  0.0000E+00  0.2800E+00
     -8.245  0.0000E+00  0.2800E+00
     -8.062  0.0000E+00  0.2800E+00
     -7.878  0.0000E+00  0.2800E+00
     -7.694  0.0000E+00  0.2800E+00
     -7.511  0.0000E+00  0.2800E+00
     -7.327  0.0000E+00  0.2800E+00
     -7.143  0.0000E+00  0.2800E+00
     -6.960  0.0000E+00  0.2800E+00
     -6.776  0.0000E+00  0.2800E+00
     -6.592  0.0000E+00  0.2800E+00
     -6.409  0.0000E+00  0.2800E+00
     -6.225  0.0000E+00  0.2800E+00
     -6.041  0.0000E+00  0.2800E+00
     -5.858  0.0000E+00  0.2800E+00
     -5.674  0.0000E+00  0.2800E+00
     -5.490  0.0000E+00  0.2800E+00
     -5.307  0.1654E-01  0.2813E+00
     -5.123  0.4678E-01  0.2876E+00
     -4.939  0.7251E-01  0.2978E+00
     -4.756  0.1066E+00  0.3170E+00
     -4.572  0.0000E+00  0.3200E+00
     -4.388  0.0000E+00  0.3200E+00
     -4.205  0.0000E+00  0.3200E+00
     -4.021  0.0000E+00  0.3200E+00
     -3.837  0.0000E+00  0.3200E+00
     -3.654  0.0000E+00  0.3200E+00
     -3.470  0.0000E+00  0.3200E+00
     -3.286  0.0000E+00  0.3200E+00
     -3.103  0.0000E+00  0.3200E+00
     -2.919  0.0000E+00  0.3200E+00
     -2.735  0.0000E+00  0.3200E+00
     -2.552  0.0000E+00  0.3200E+00
     -2.368  0.9173E-01  0.3313E+00
     -2.184  0.1850E+00  0.3586E+00
     -2.001  0.9738E-01  0.3913E+00
     -1.817  0.1681E+00  0.4111E+00
     -1.633  0.2777E-01  0.4393E+00
     -1.450  0.0000E+00  0.4400E+00
     -1.266  0.0000E+00  0.4400E+00
     -1.082  0.0000E+00  0.4400E+00
     -0.899  0.0000E+00  0.4400E+00
     -0.715  0.0000E+00  0.4400E+00
     -0.531  0.0000E+00  0.4400E+00
     -0.348  0.0000E+00  0.4400E+00
     -0.164  0.0000E+00  0.4400E+00
      0.020  0.1441E+00  0.4610E+00
      0.203  0.7123E-01  0.4813E+00
      0.387  0.1339E+00  0.5015E+00
      0.571  0.9363E-01  0.5235E+00
      0.754  0.8803E-01  0.5485E+00
      0.938  0.2923E-01  0.5593E+00
      1.122  0.1288E+00  0.5812E+00
      1.305  0.6999E-01  0.5996E+00
      1.489  0.1244E+00  0.6135E+00
      1.673  0.1260E+00  0.6389E+00
      1.856  0.8842E-01  0.6608E+00
      2.040  0.7851E-01  0.6816E+00
      2.224  0.1121E+00  0.7035E+00
      2.407  0.0000E+00  0.7200E+00
      2.591  0.1042E+00  0.7442E+00
      2.775  0.0000E+00  0.7600E+00
      2.958  0.0000E+00  0.7600E+00
      3.142  0.0000E+00  0.7600E+00
      3.326  0.0000E+00  0.7600E+00
      3.509  0.0000E+00  0.7600E+00
      3.693  0.0000E+00  0.7600E+00
      3.876  0.0000E+00  0.7600E+00
      4.060  0.0000E+00  0.7600E+00
      4.244  0.0000E+00  0.7600E+00
      4.427  0.0000E+00  0.7600E+00
      4.611  0.0000E+00  0.7600E+00
      4.795  0.0000E+00  0.7600E+00
      4.978  0.0000E+00  0.7600E+00
      5.162  0.0000E+00  0.7600E+00
      5.346  0.0000E+00  0.7600E+00
      5.529  0.2267E-01  0.7620E+00
      5.713  0.4881E-01  0.7709E+00
      5.897  0.6355E-01  0.7831E+00
      6.080  0.4201E-01  0.7932E+00
      6.264  0.0000E+00  0.8000E+00
      6.448  0.0000E+00  0.8000E+00
      6.631  0.1709E+00  0.8149E+00
      6.815  0.5650E-01  0.8387E+00
      6.999  0.8032E-01  0.8482E+00
      7.182  0.1283E+00  0.8715E+00
      7.366  0.9997E-01  0.8917E+00
      7.550  0.1774E+00  0.9144E+00
      7.733  0.0000E+00  0.9200E+00
      7.917  0.0000E+00  0.9200E+00
      8.101  0.0000E+00  0.9200E+00
      8.284  0.1794E-01  0.9217E+00
      8.468  0.5486E-01  0.9287E+00
      8.652  0.1380E+00  0.9448E+00
      8.835  0.0000E+00  0.9600E+00
      9.019  0.0000E+00  0.9600E+00
      9.203  0.0000E+00  0.9600E+00
      9.386  0.0000E+00  0.9600E+00
      9.570  0.0000E+00  0.9600E+00
      9.754  0.0000E+00  0.9600E+00
      9.937  0.0000E+00  0.9600E+00
     10.121  0.0000E+00  0.9600E+00
     10.305  0.0000E+00  0.9600E+00
     10.488  0.0000E+00  0.9600E+00
     10.672  0.0000E+00  0.9600E+00
     10.856  0.0000E+00  0.9600E+00
     11.039  0.0000E+00  0.9600E+00
     11.223  0.0000E+00  0.9600E+00
