       N       E                     dE             d eps       ncg     rms          rms(c)
DAV:   1     0.501397150162E+03    0.50140E+03   -0.28793E+04   768   0.131E+03
DAV:   2    -0.112131635353E+02   -0.51261E+03   -0.48867E+03   912   0.310E+02
DAV:   3    -0.720324941110E+02   -0.60819E+02   -0.60325E+02  1056   0.968E+01
DAV:   4    -0.785526060153E+02   -0.65201E+01   -0.64964E+01  1424   0.308E+01
DAV:   5    -0.793689569220E+02   -0.81635E+00   -0.81620E+00  1120   0.708E+00    0.230E+01
RMM:   6    -0.773098848111E+02    0.20591E+01   -0.62610E+00   808   0.577E+00    0.152E+01
RMM:   7    -0.768883863970E+02    0.42150E+00   -0.25815E+00   819   0.413E+00    0.398E+00
RMM:   8    -0.768144287202E+02    0.73958E-01   -0.23444E-01   964   0.154E+00    0.578E-01
RMM:   9    -0.768083726670E+02    0.60561E-02   -0.35660E-02   992   0.591E-01    0.229E-01
RMM:  10    -0.768086778059E+02   -0.30514E-03   -0.80249E-03  1195   0.254E-01    0.147E-01
RMM:  11    -0.768090743819E+02   -0.39658E-03   -0.40094E-03  1104   0.152E-01    0.544E-02
RMM:  12    -0.768092341488E+02   -0.15977E-03   -0.18736E-03  1098   0.110E-01    0.252E-02
RMM:  13    -0.768093288529E+02   -0.94704E-04   -0.10371E-03   796   0.793E-02    0.170E-02
RMM:  14    -0.768093736133E+02   -0.44760E-04   -0.50047E-04   880   0.665E-02    0.409E-03
RMM:  15    -0.768094002539E+02   -0.26641E-04   -0.31457E-04   762   0.563E-02    0.318E-03
RMM:  16    -0.768094117028E+02   -0.11449E-04   -0.14115E-04   633   0.487E-02
   1 F= -.76809412E+02 E0= -.76809412E+02  d E =-.768094E+02
       N       E                     dE             d eps       ncg     rms          rms(c)
DAV:   1    -0.768381189658E+02   -0.28719E-01   -0.23820E+00   896   0.679E+00    0.110E+00
RMM:   2    -0.768397160533E+02   -0.15971E-02   -0.12702E-01   947   0.148E+00    0.404E-01
RMM:   3    -0.768366621085E+02    0.30539E-02   -0.11317E-02  1106   0.426E-01    0.287E-01
RMM:   4    -0.768359451203E+02    0.71699E-03   -0.35038E-03  1025   0.193E-01    0.103E-01
RMM:   5    -0.768359898218E+02   -0.44702E-04   -0.10583E-03  1134   0.105E-01    0.540E-02
RMM:   6    -0.768360200789E+02   -0.30257E-04   -0.46249E-04  1058   0.674E-02    0.149E-02
RMM:   7    -0.768360289147E+02   -0.88358E-05   -0.25066E-04   996   0.506E-02    0.140E-02
RMM:   8    -0.768360248860E+02    0.40287E-05    0.64775E-06   485   0.361E-02
   2 F= -.76836025E+02 E0= -.76836025E+02  d E =-.266132E-01
       N       E                     dE             d eps       ncg     rms          rms(c)
DAV:   1    -0.768487941766E+02   -0.12765E-01   -0.24206E+00   848   0.686E+00    0.111E+00
RMM:   2    -0.768501782576E+02   -0.13841E-02   -0.12644E-01   950   0.149E+00    0.409E-01
RMM:   3    -0.768473436231E+02    0.28346E-02   -0.12177E-02  1129   0.436E-01    0.292E-01
RMM:   4    -0.768466273533E+02    0.71627E-03   -0.36842E-03  1048   0.201E-01    0.105E-01
RMM:   5    -0.768466856882E+02   -0.58335E-04   -0.12327E-03  1148   0.113E-01    0.542E-02
RMM:   6    -0.768467235029E+02   -0.37815E-04   -0.56371E-04  1083   0.742E-02    0.153E-02
RMM:   7    -0.768467364553E+02   -0.12952E-04   -0.31170E-04  1040   0.554E-02    0.151E-02
RMM:   8    -0.768467320141E+02    0.44412E-05    0.93194E-07   500   0.392E-02
   3 F= -.76846732E+02 E0= -.76846732E+02  d E =-.373203E-01
       N       E                     dE             d eps       ncg     rms          rms(c)
DAV:   1    -0.768518295361E+02   -0.50931E-02   -0.20484E+00   784   0.640E+00    0.101E+00
RMM:   2    -0.768618450907E+02   -0.10016E-01   -0.11152E-01   961   0.142E+00    0.331E-01
RMM:   3    -0.768612016539E+02    0.64344E-03   -0.92921E-03  1241   0.395E-01    0.347E-01
RMM:   4    -0.768608931166E+02    0.30854E-03   -0.30975E-03  1112   0.169E-01    0.132E-01
RMM:   5    -0.768609631061E+02   -0.69989E-04   -0.11695E-03  1154   0.107E-01    0.311E-02
RMM:   6    -0.768609941776E+02   -0.31072E-04   -0.52280E-04  1120   0.743E-02    0.929E-03
RMM:   7    -0.768610016130E+02   -0.74354E-05   -0.10729E-04   648   0.536E-02
   4 F= -.76861002E+02 E0= -.76861002E+02  d E =-.142696E-01
       N       E                     dE             d eps       ncg     rms          rms(c)
DAV:   1    -0.768606157657E+02    0.37841E-03   -0.27019E-01   896   0.233E+00    0.362E-01
RMM:   2    -0.768619189111E+02   -0.13031E-02   -0.14556E-02   962   0.520E-01    0.115E-01
RMM:   3    -0.768619080971E+02    0.10814E-04   -0.14963E-03  1209   0.155E-01    0.117E-01
RMM:   4    -0.768618839236E+02    0.24174E-04   -0.62339E-04  1111   0.754E-02    0.355E-02
RMM:   5    -0.768618785759E+02    0.53477E-05   -0.13325E-05   547   0.480E-02
   5 F= -.76861879E+02 E0= -.76861879E+02  d E =-.151466E-01
       N       E                     dE             d eps       ncg     rms          rms(c)
DAV:   1    -0.768632220251E+02   -0.13381E-02   -0.40542E-01   800   0.298E+00    0.410E-01
RMM:   2    -0.768648485584E+02   -0.16265E-02   -0.20239E-02   964   0.612E-01    0.112E-01
RMM:   3    -0.768647359199E+02    0.11264E-03   -0.21504E-03  1203   0.189E-01    0.104E-01
RMM:   4    -0.768646896902E+02    0.46230E-04   -0.90968E-04  1039   0.948E-02    0.241E-02
RMM:   5    -0.768647033077E+02   -0.13617E-04   -0.23745E-04   896   0.597E-02    0.129E-02
RMM:   6    -0.768647040454E+02   -0.73775E-06   -0.97759E-05   748   0.489E-02
   6 F= -.76864704E+02 E0= -.76864704E+02  d E =-.282547E-02
       N       E                     dE             d eps       ncg     rms          rms(c)
DAV:   1    -0.768647985032E+02   -0.95196E-04   -0.18747E-01   800   0.202E+00    0.278E-01
RMM:   2    -0.768655588528E+02   -0.76035E-03   -0.92736E-03   964   0.417E-01    0.785E-02
RMM:   3    -0.768655109770E+02    0.47876E-04   -0.10343E-03  1199   0.131E-01    0.724E-02
RMM:   4    -0.768654924623E+02    0.18515E-04   -0.48232E-04  1038   0.691E-02    0.156E-02
RMM:   5    -0.768654843385E+02    0.81237E-05    0.24678E-05   476   0.441E-02
   7 F= -.76865484E+02 E0= -.76865484E+02  d E =-.360576E-02
       N       E                     dE             d eps       ncg     rms          rms(c)
DAV:   1    -0.768670693503E+02   -0.15769E-02   -0.16247E-01   800   0.175E+00    0.316E-01
RMM:   2    -0.768674027785E+02   -0.33343E-03   -0.90165E-03   954   0.394E-01    0.119E-01
RMM:   3    -0.768672645009E+02    0.13828E-03   -0.10117E-03  1141   0.124E-01    0.781E-02
RMM:   4    -0.768672409268E+02    0.23574E-04   -0.31240E-04  1016   0.584E-02    0.223E-02
RMM:   5    -0.768672356127E+02    0.53141E-05    0.90947E-06   476   0.355E-02
   8 F= -.76867236E+02 E0= -.76867236E+02  d E =-.175127E-02
       N       E                     dE             d eps       ncg     rms          rms(c)
DAV:   1    -0.768674219334E+02   -0.18101E-03   -0.63698E-02   880   0.110E+00    0.196E-01
RMM:   2    -0.768675518327E+02   -0.12990E-03   -0.35504E-03   958   0.249E-01    0.744E-02
RMM:   3    -0.768675094479E+02    0.42385E-04   -0.45820E-04  1126   0.827E-02    0.499E-02
RMM:   4    -0.768675007149E+02    0.87331E-05   -0.13903E-04   858   0.413E-02
   9 F= -.76867501E+02 E0= -.76867501E+02  d E =-.201638E-02
       N       E                     dE             d eps       ncg     rms          rms(c)
DAV:   1    -0.768684347314E+02   -0.92528E-03   -0.17773E-01   768   0.178E+00    0.201E-01
RMM:   2    -0.768689016699E+02   -0.46694E-03   -0.87022E-03   960   0.379E-01    0.976E-02
RMM:   3    -0.768688504294E+02    0.51241E-04   -0.10260E-03  1171   0.123E-01    0.782E-02
RMM:   4    -0.768688336095E+02    0.16820E-04   -0.33025E-04   966   0.576E-02    0.298E-02
RMM:   5    -0.768688275534E+02    0.60561E-05    0.13909E-05   479   0.377E-02
  10 F= -.76868828E+02 E0= -.76868828E+02  d E =-.132684E-02
       N       E                     dE             d eps       ncg     rms          rms(c)
DAV:   1    -0.768658211701E+02    0.30124E-02   -0.15943E+00   768   0.532E+00    0.613E-01
RMM:   2    -0.768700809847E+02   -0.42598E-02   -0.78207E-02   960   0.113E+00    0.290E-01
RMM:   3    -0.768696472811E+02    0.43370E-03   -0.96785E-03  1223   0.368E-01    0.242E-01
RMM:   4    -0.768694508535E+02    0.19643E-03   -0.28075E-03  1111   0.166E-01    0.928E-02
RMM:   5    -0.768695013271E+02   -0.50474E-04   -0.10248E-03  1116   0.101E-01    0.347E-02
RMM:   6    -0.768695337224E+02   -0.32395E-04   -0.57698E-04  1022   0.710E-02    0.159E-02
RMM:   7    -0.768695400564E+02   -0.63339E-05   -0.14628E-04   701   0.507E-02
  11 F= -.76869540E+02 E0= -.76869540E+02  d E =-.203934E-02
       N       E                     dE             d eps       ncg     rms          rms(c)
DAV:   1    -0.768696570608E+02   -0.12334E-03   -0.12656E-01   776   0.149E+00    0.172E-01
RMM:   2    -0.768699877787E+02   -0.33072E-03   -0.61467E-03   936   0.312E-01    0.799E-02
RMM:   3    -0.768698909147E+02    0.96864E-04   -0.45738E-04  1108   0.872E-02    0.627E-02
RMM:   4    -0.768698711109E+02    0.19804E-04   -0.12119E-04   750   0.360E-02
  12 F= -.76869871E+02 E0= -.76869871E+02  d E =-.237040E-02
       N       E                     dE             d eps       ncg     rms          rms(c)
DAV:   1    -0.768701776326E+02   -0.28672E-03   -0.32587E-01   768   0.258E+00    0.430E-01
RMM:   2    -0.768710700199E+02   -0.89239E-03   -0.16428E-02   964   0.539E-01    0.125E-01
RMM:   3    -0.768707843432E+02    0.28568E-03   -0.13599E-03  1165   0.153E-01    0.878E-02
RMM:   4    -0.768706967573E+02    0.87586E-04   -0.53579E-04   926   0.744E-02    0.218E-02
RMM:   5    -0.768706920436E+02    0.47137E-05   -0.22008E-05   563   0.430E-02
  13 F= -.76870692E+02 E0= -.76870692E+02  d E =-.820933E-03
       N       E                     dE             d eps       ncg     rms          rms(c)
DAV:   1    -0.768706726275E+02    0.24130E-04   -0.46389E-03   952   0.308E-01    0.517E-02
RMM:   2    -0.768706932013E+02   -0.20574E-04   -0.29921E-04   943   0.729E-02    0.143E-02
RMM:   3    -0.768706867908E+02    0.64106E-05    0.10073E-05   474   0.335E-02
  14 F= -.76870687E+02 E0= -.76870687E+02  d E =-.815680E-03
       N       E                     dE             d eps       ncg     rms          rms(c)
DAV:   1    -0.768705414116E+02    0.15179E-03   -0.29375E-01   768   0.252E+00    0.279E-01
RMM:   2    -0.768714696348E+02   -0.92822E-03   -0.13687E-02   975   0.502E-01    0.935E-02
RMM:   3    -0.768714194309E+02    0.50204E-04   -0.17101E-03  1215   0.161E-01    0.802E-02
RMM:   4    -0.768713845455E+02    0.34885E-04   -0.63981E-04  1051   0.765E-02    0.242E-02
RMM:   5    -0.768713847828E+02   -0.23735E-06   -0.77242E-05   630   0.484E-02
  15 F= -.76871385E+02 E0= -.76871385E+02  d E =-.697992E-03
       N       E                     dE             d eps       ncg     rms          rms(c)
DAV:   1    -0.768713251573E+02    0.59388E-04   -0.14402E-02   904   0.558E-01    0.627E-02
RMM:   2    -0.768713877544E+02   -0.62597E-04   -0.81201E-04   984   0.121E-01    0.204E-02
RMM:   3    -0.768713815943E+02    0.61601E-05   -0.35331E-05   594   0.497E-02
  16 F= -.76871382E+02 E0= -.76871382E+02  d E =-.694804E-03
       N       E                     dE             d eps       ncg     rms          rms(c)
DAV:   1    -0.768715048213E+02   -0.11707E-03   -0.45412E-02   768   0.102E+00    0.120E-01
RMM:   2    -0.768716695876E+02   -0.16477E-03   -0.22686E-03   982   0.199E-01    0.364E-02
RMM:   3    -0.768716634310E+02    0.61567E-05   -0.34022E-04  1084   0.715E-02    0.302E-02
RMM:   4    -0.768716571471E+02    0.62839E-05   -0.88561E-05   747   0.397E-02
  17 F= -.76871657E+02 E0= -.76871657E+02  d E =-.275553E-03
       N       E                     dE             d eps       ncg     rms          rms(c)
DAV:   1    -0.768706337141E+02    0.10297E-02   -0.40690E-01   768   0.305E+00    0.363E-01
RMM:   2    -0.768719754690E+02   -0.13418E-02   -0.19339E-02   975   0.581E-01    0.107E-01
RMM:   3    -0.768718770094E+02    0.98460E-04   -0.24430E-03  1216   0.190E-01    0.916E-02
RMM:   4    -0.768718383176E+02    0.38692E-04   -0.89096E-04  1055   0.892E-02    0.272E-02
RMM:   5    -0.768718520810E+02   -0.13763E-04   -0.22805E-04   822   0.545E-02    0.154E-02
RMM:   6    -0.768718514149E+02    0.66617E-06   -0.82959E-05   670   0.436E-02
  18 F= -.76871851E+02 E0= -.76871851E+02  d E =-.469821E-03
       N       E                     dE             d eps       ncg     rms          rms(c)
DAV:   1    -0.768718070609E+02    0.45020E-04   -0.48354E-02   784   0.106E+00    0.123E-01
RMM:   2    -0.768719517331E+02   -0.14467E-03   -0.22373E-03   923   0.195E-01    0.352E-02
RMM:   3    -0.768719152839E+02    0.36449E-04   -0.15754E-04   869   0.538E-02    0.282E-02
RMM:   4    -0.768719053189E+02    0.99650E-05   -0.29995E-05   511   0.246E-02
  19 F= -.76871905E+02 E0= -.76871905E+02  d E =-.523725E-03
       N       E                     dE             d eps       ncg     rms          rms(c)
DAV:   1    -0.768720526964E+02   -0.13741E-03   -0.16562E-02   832   0.592E-01    0.751E-02
RMM:   2    -0.768721070921E+02   -0.54396E-04   -0.73304E-04   946   0.115E-01    0.211E-02
RMM:   3    -0.768720926418E+02    0.14450E-04   -0.13489E-05   521   0.324E-02
  20 F= -.76872093E+02 E0= -.76872093E+02  d E =-.187323E-03
       N       E                     dE             d eps       ncg     rms          rms(c)
DAV:   1    -0.768719302855E+02    0.17681E-03   -0.14417E-01   768   0.176E+00    0.213E-01
RMM:   2    -0.768724361088E+02   -0.50582E-03   -0.67200E-03   966   0.347E-01    0.641E-02
RMM:   3    -0.768723950593E+02    0.41049E-04   -0.75615E-04  1135   0.108E-01    0.606E-02
RMM:   4    -0.768723736444E+02    0.21415E-04   -0.28520E-04   927   0.532E-02    0.167E-02
RMM:   5    -0.768723694881E+02    0.41563E-05    0.17482E-05   469   0.347E-02
  21 F= -.76872369E+02 E0= -.76872369E+02  d E =-.464169E-03
       N       E                     dE             d eps       ncg     rms          rms(c)
DAV:   1    -0.768724559820E+02   -0.82338E-04   -0.42729E-03   920   0.315E-01    0.505E-02
RMM:   2    -0.768724647476E+02   -0.87656E-05   -0.24395E-04   964   0.672E-02    0.167E-02
RMM:   3    -0.768724576306E+02    0.71170E-05    0.28847E-06   486   0.277E-02
  22 F= -.76872458E+02 E0= -.76872458E+02  d E =-.881425E-04
       N       E                     dE             d eps       ncg     rms          rms(c)
DAV:   1    -0.768724957693E+02   -0.31022E-04   -0.24169E-02   768   0.756E-01    0.114E-01
RMM:   2    -0.768725433363E+02   -0.47567E-04   -0.11788E-03   989   0.151E-01    0.412E-02
RMM:   3    -0.768725307455E+02    0.12591E-04   -0.16672E-04   984   0.541E-02
  23 F= -.76872531E+02 E0= -.76872531E+02  d E =-.161257E-03
