 vasp.5.4.4.18Apr17-6-g9f103f2a35 (build Feb 28 2020 14:15:47) complex          
  
 executed on             LinuxIFC date 2022.08.07  07:22:38
 running on   64 total cores
 distrk:  each k-point on   64 cores,    1 groups
 distr:  one band on NCORES_PER_BAND=  16 cores,    4 groups


--------------------------------------------------------------------------------------------------------


 INCAR:
 POTCAR:    PAW P 26Mar2009                       
 POTCAR:    PAW S 27Mar2009                       
 POTCAR:    PAW Li_sv 10Sep2004                   
 POTCAR:    PAW P 26Mar2009                       
   VRHFIN =P : s2p3                                                             
   LEXCH  = CA                                                                  
   EATOM  =   176.5121 eV,   12.9733 Ry                                         
                                                                                
   TITEL  = PAW P 26Mar2009                                                     
   LULTRA =        F    use ultrasoft PP ?                                      
   IUNSCR =        1    unscreen: 0-lin 1-nonlin 2-no                           
   RPACOR =    1.500    partial core radius                                     
   POMASS =   30.974; ZVAL   =    5.000    mass and valenz                      
   RCORE  =    1.900    outmost cutoff radius                                   
   RWIGS  =    2.330; RWIGS  =    1.233    wigner-seitz radius (au A)           
   ENMAX  =  255.155; ENMIN  =  191.366 eV                                      
   ICORE  =        2    local potential                                         
   LCOR   =        T    correct aug charges                                     
   LPAW   =        T    paw PP                                                  
   EAUG   =  342.924                                                            
   DEXC   =    0.000                                                            
   RMAX   =    1.935    core radius for proj-oper                               
   RAUG   =    1.300    factor for augmentation sphere                          
   RDEP   =    1.931    radius for radial grids                                 
   RDEPT  =    1.780    core radius for aug-charge                              
                                                                                
   Atomic configuration                                                         
    6 entries                                                                   
     n  l   j            E        occ.                                          
     1  0  0.50     -2072.7761   2.0000                                         
     2  0  0.50      -172.9483   2.0000                                         
     2  1  1.50      -124.4644   6.0000                                         
     3  0  0.50       -14.0086   2.0000                                         
     3  1  0.50        -5.6037   3.0000                                         
     3  2  1.50        -6.8029   0.0000                                         
   Description                                                                  
     l       E           TYP  RCUT    TYP  RCUT                                 
     0    -14.0086211     23  1.900                                             
     0    -11.8189335     23  1.900                                             
     1     -5.6037292     23  1.900                                             
     1     -0.3527308     23  1.900                                             
     2     -6.8029130     23  1.900                                             
  local pseudopotential read in
  partial core-charges read in
  partial kinetic energy density read in
  atomic valenz-charges read in
  non local Contribution for L=           0  read in
    real space projection operators read in
  non local Contribution for L=           0  read in
    real space projection operators read in
  non local Contribution for L=           1  read in
    real space projection operators read in
  non local Contribution for L=           1  read in
    real space projection operators read in
    PAW grid and wavefunctions read in
 
   number of l-projection  operators is LMAX  =           4
   number of lm-projection operators is LMMAX =           8
 
 POTCAR:    PAW S 27Mar2009                       
   VRHFIN =S : s2p4                                                             
   LEXCH  = CA                                                                  
   EATOM  =   277.3745 eV,   20.3864 Ry                                         
                                                                                
   TITEL  = PAW S 27Mar2009                                                     
   LULTRA =        F    use ultrasoft PP ?                                      
   IUNSCR =        1    unscreen: 0-lin 1-nonlin 2-no                           
   RPACOR =    1.500    partial core radius                                     
   POMASS =   32.066; ZVAL   =    6.000    mass and valenz                      
   RCORE  =    1.900    outmost cutoff radius                                   
   RWIGS  =    2.200; RWIGS  =    1.164    wigner-seitz radius (au A)           
   ENMAX  =  258.602; ENMIN  =  193.952 eV                                      
   ICORE  =        2    local potential                                         
   LCOR   =        T    correct aug charges                                     
   LPAW   =        T    paw PP                                                  
   EAUG   =  335.092                                                            
   DEXC   =    0.000                                                            
   RMAX   =    1.942    core radius for proj-oper                               
   RAUG   =    1.300    factor for augmentation sphere                          
   RDEP   =    1.954    radius for radial grids                                 
   RDEPT  =    1.744    core radius for aug-charge                              
                                                                                
   Atomic configuration                                                         
    6 entries                                                                   
     n  l   j            E        occ.                                          
     1  0  0.50     -2393.1495   2.0000                                         
     2  0  0.50      -210.5411   2.0000                                         
     2  1  1.50      -156.4410   6.0000                                         
     3  0  0.50       -17.2664   2.0000                                         
     3  1  0.50        -7.1129   4.0000                                         
     3  2  1.50        -8.1635   0.0000                                         
   Description                                                                  
     l       E           TYP  RCUT    TYP  RCUT                                 
     0    -17.2664422     23  1.900                                             
     0    -15.8420823     23  1.900                                             
     1     -7.1129072     23  1.900                                             
     1     -2.8398274     23  1.900                                             
     2     -8.1634956     23  1.900                                             
  local pseudopotential read in
  partial core-charges read in
  partial kinetic energy density read in
  atomic valenz-charges read in
  non local Contribution for L=           0  read in
    real space projection operators read in
  non local Contribution for L=           0  read in
    real space projection operators read in
  non local Contribution for L=           1  read in
    real space projection operators read in
  non local Contribution for L=           1  read in
    real space projection operators read in
    PAW grid and wavefunctions read in
 
   number of l-projection  operators is LMAX  =           4
   number of lm-projection operators is LMMAX =           8
 
 POTCAR:    PAW Li_sv 10Sep2004                   
   VRHFIN =Li: 1s2s                                                             
   LEXCH  = CA                                                                  
   EATOM  =   199.5738 eV,   14.6683 Ry                                         
                                                                                
   TITEL  = PAW Li_sv 10Sep2004                                                 
   LULTRA =        F    use ultrasoft PP ?                                      
   IUNSCR =        0    unscreen: 0-lin 1-nonlin 2-no                           
   RPACOR =    0.000    partial core radius                                     
   POMASS =    7.010; ZVAL   =    3.000    mass and valenz                      
   RCORE  =    1.700    outmost cutoff radius                                   
   RWIGS  =    2.050; RWIGS  =    1.085    wigner-seitz radius (au A)           
   ENMAX  =  498.387; ENMIN  =  373.790 eV                                      
   ICORE  =        2    local potential                                         
   LCOR   =        T    correct aug charges                                     
   LPAW   =        T    paw PP                                                  
   EAUG   =  628.945                                                            
   RMAX   =    1.732    core radius for proj-oper                               
   RAUG   =    1.300    factor for augmentation sphere                          
   RDEP   =    1.728    radius for radial grids                                 
   RDEPT  =    1.329    core radius for aug-charge                              
                                                                                
   Atomic configuration                                                         
    4 entries                                                                   
     n  l   j            E        occ.                                          
     1  0  0.50       -51.0884   2.0000                                         
     2  0  0.50        -2.8766   1.0000                                         
     2  1  0.50        -2.8708   0.0000                                         
     3  2  1.50        -1.3606   0.0000                                         
   Description                                                                  
     l       E           TYP  RCUT    TYP  RCUT                                 
     0    -51.0884324     23  1.400                                             
     0     -2.8766458     23  1.700                                             
     1     -2.8708293     23  1.400                                             
     2     -1.3605826     23  1.400                                             
  local pseudopotential read in
  atomic valenz-charges read in
  non local Contribution for L=           0  read in
    real space projection operators read in
  non local Contribution for L=           0  read in
    real space projection operators read in
  non local Contribution for L=           1  read in
    real space projection operators read in
    PAW grid and wavefunctions read in
 
   number of l-projection  operators is LMAX  =           3
   number of lm-projection operators is LMMAX =           5
 
 Optimization of the real space projectors (new method)

 maximal supplied QI-value         = 19.84
 optimisation between [QCUT,QGAM] = [ 10.32, 20.83] = [ 29.81,121.55] Ry 
 Optimized for a Real-space Cutoff    1.39 Angstroem

   l    n(q)    QCUT    max X(q) W(low)/X(q) W(high)/X(q)  e(spline) 
   0      9    10.318   158.476    0.64E-04    0.80E-04    0.60E-07
   0      9    10.318   128.097    0.63E-04    0.79E-04    0.60E-07
   1      8    10.318    73.217    0.18E-03    0.19E-03    0.20E-06
   1      8    10.318    48.248    0.18E-03    0.19E-03    0.19E-06
 Optimization of the real space projectors (new method)

 maximal supplied QI-value         = 19.84
 optimisation between [QCUT,QGAM] = [ 10.32, 20.83] = [ 29.81,121.55] Ry 
 Optimized for a Real-space Cutoff    1.39 Angstroem

   l    n(q)    QCUT    max X(q) W(low)/X(q) W(high)/X(q)  e(spline) 
   0      9    10.318   180.455    0.73E-04    0.81E-04    0.62E-07
   0      9    10.318   157.733    0.72E-04    0.81E-04    0.62E-07
   1      8    10.318    66.201    0.18E-03    0.20E-03    0.20E-06
   1      8    10.318    49.617    0.18E-03    0.20E-03    0.20E-06
 Optimization of the real space projectors (new method)

 maximal supplied QI-value         = 22.11
 optimisation between [QCUT,QGAM] = [ 10.39, 20.78] = [ 30.24,120.96] Ry 
 Optimized for a Real-space Cutoff    1.20 Angstroem

   l    n(q)    QCUT    max X(q) W(low)/X(q) W(high)/X(q)  e(spline) 
   0      7    10.392    10.443    0.77E-04    0.41E-05    0.30E-07
   0      7    10.392     8.514    0.20E-03    0.36E-04    0.67E-07
   1      7    10.392     5.406    0.20E-03    0.20E-03    0.12E-06
  PAW P 26Mar2009                       :
 energy of atom  1       EATOM= -176.5121
 kinetic energy error for atom=    0.0021 (will be added to EATOM!!)
  PAW S 27Mar2009                       :
 energy of atom  2       EATOM= -277.3745
 kinetic energy error for atom=    0.0041 (will be added to EATOM!!)
  PAW Li_sv 10Sep2004                   :
 energy of atom  3       EATOM= -199.5738
 kinetic energy error for atom=    0.0564 (will be added to EATOM!!)
 
 
 POSCAR: Good luck                               
  positions in cartesian coordinates
  No initial velocities read in
 exchange correlation table for  LEXCH =        2
   RHO(1)=    0.500       N(1)  =     2000
   RHO(2)=  100.500       N(2)  =     4000
 


--------------------------------------------------------------------------------------------------------


 ion  position               nearest neighbor table
   1  0.000  0.771  0.440-   9 2.03   7 2.03   6 2.04   3 2.04
   2  0.500  0.229  0.940-  10 2.03   8 2.03   4 2.04   5 2.04
   3  0.208  0.600  0.550-   1 2.04  14 2.40  13 2.43  12 2.57  11 2.63
   4  0.292  0.400  0.050-   2 2.04  13 2.40  14 2.43  11 2.57  12 2.63
   5  0.708  0.400  0.050-   2 2.04  16 2.40  15 2.43  11 2.57  12 2.63
   6  0.792  0.600  0.550-   1 2.04  15 2.40  16 2.43  12 2.57  11 2.63
   7  0.000  0.823  0.102-   1 2.03  16 2.38  13 2.38
   8  0.500  0.177  0.602-   2 2.03  14 2.38  15 2.38
   9  0.000  0.061  0.605-   1 2.03  15 2.39  14 2.39
  10  0.500  0.939  0.105-   2 2.03  13 2.39  16 2.39
  11  0.000  0.432  0.854-   5 2.57   4 2.57   6 2.63   3 2.63
  12  0.500  0.568  0.354-   3 2.57   6 2.57   4 2.63   5 2.63
  13  0.267  0.768  0.914-   7 2.38  10 2.39   4 2.40   3 2.43
  14  0.233  0.232  0.414-   8 2.38   9 2.39   3 2.40   4 2.43
  15  0.767  0.232  0.414-   8 2.38   9 2.39   6 2.40   5 2.43
  16  0.733  0.768  0.914-   7 2.38  10 2.39   5 2.40   6 2.43
 
  LATTYP: Found a simple orthorhombic cell.
 ALAT       =     5.9310675703
 B/A-ratio  =     1.0349058250
 C/A-ratio  =     1.3152863447
  
  Lattice vectors:
  
 A1 = (   0.0000000000,   0.0000000000,  -5.9310675703)
 A2 = (   0.0000000000,  -6.1380963772,   0.0000000000)
 A3 = (  -7.8010521848,   0.0000000000,   0.0000000000)


Analysis of symmetry for initial positions (statically):
=====================================================================
 Subroutine PRICEL returns:
 Original cell was already a primitive cell.
 

 Routine SETGRP: Setting up the symmetry group for a 
 simple orthorhombic supercell.


 Subroutine GETGRP returns: Found  4 space group operations
 (whereof  2 operations were pure point group operations)
 out of a pool of  8 trial point group operations.


The static configuration has the point symmetry C_1h.
 The point group associated with its full space group is C_2v.


Analysis of symmetry for dynamics (positions and initial velocities):
=====================================================================
 Subroutine PRICEL returns:
 Original cell was already a primitive cell.
 

 Routine SETGRP: Setting up the symmetry group for a 
 simple orthorhombic supercell.


 Subroutine GETGRP returns: Found  4 space group operations
 (whereof  2 operations were pure point group operations)
 out of a pool of  8 trial point group operations.


The dynamic configuration has the point symmetry C_1h.
 The point group associated with its full space group is C_2v.


 Subroutine INISYM returns: Found  4 space group operations
 (whereof  2 operations are pure point group operations),
 and found     1 'primitive' translations

 
 
 KPOINTS: Automatic mesh                          

Automatic generation of k-mesh.
Space group operators:
 irot       det(A)        alpha          n_x          n_y          n_z        tau_x        tau_y        tau_z
    1     1.000000     0.000000     1.000000     0.000000     0.000000     0.000000     0.000000     0.000000
    2    -1.000000   180.000000     1.000000     0.000000     0.000000     0.000000     0.000000     0.000000
    3    -1.000000   180.000000     0.000000     1.000000     0.000000    -0.500000    -0.000000    -0.500000
    4     1.000000   180.000000     0.000000     0.000000     1.000000    -0.500000    -0.000000    -0.500000
 
 Subroutine IBZKPT returns following result:
 ===========================================
 
 Found      8 irreducible k-points:
 
 Following reciprocal coordinates:
            Coordinates               Weight
  0.125000  0.125000  0.125000      8.000000
  0.375000  0.125000  0.125000      8.000000
  0.125000  0.375000  0.125000      8.000000
  0.375000  0.375000  0.125000      8.000000
  0.125000  0.125000  0.375000      8.000000
  0.375000  0.125000  0.375000      8.000000
  0.125000  0.375000  0.375000      8.000000
  0.375000  0.375000  0.375000      8.000000
 
 Following cartesian coordinates:
            Coordinates               Weight
  0.016023  0.020365  0.021075      8.000000
  0.048070  0.020365  0.021075      8.000000
  0.016023  0.061094  0.021075      8.000000
  0.048070  0.061094  0.021075      8.000000
  0.016023  0.020365  0.063226      8.000000
  0.048070  0.020365  0.063226      8.000000
  0.016023  0.061094  0.063226      8.000000
  0.048070  0.061094  0.063226      8.000000
 
 TETIRR: Found    140 inequivalent tetrahedra from      384


--------------------------------------------------------------------------------------------------------




 Dimension of arrays:
   k-points           NKPTS =      8   k-points in BZ     NKDIM =      8   number of bands    NBANDS=     48
   number of dos      NEDOS =    301   number of ions     NIONS =     16
   non local maximal  LDIM  =      4   non local SUM 2l+1 LMDIM =      8
   total plane-waves  NPLWV =  90720
   max r-space proj   IRMAX =   3625   max aug-charges    IRDMAX=  10262
   dimension x,y,z NGX =    54 NGY =   42 NGZ =   40
   dimension x,y,z NGXF=   108 NGYF=   84 NGZF=   80
   support grid    NGXF=   108 NGYF=   84 NGZF=   80
   ions per type =               2   8   6
   NGX,Y,Z   is equivalent  to a cutoff of  11.51, 11.38, 11.21 a.u.
   NGXF,Y,Z  is equivalent  to a cutoff of  23.02, 22.75, 22.42 a.u.

 SYSTEM =  unknown system                          
 POSCAR =  Good luck                               

 Startparameter for this run:
   NWRITE =      2    write-flag & timer
   PREC   = accura    normal or accurate (medium, high low for compatibility)
   ISTART =      0    job   : 0-new  1-cont  2-samecut
   ICHARG =      2    charge: 1-file 2-atom 10-const
   ISPIN  =      1    spin polarized calculation?
   LNONCOLLINEAR =      F non collinear calculations
   LSORBIT =      F    spin-orbit coupling
   INIWAV =      1    electr: 0-lowe 1-rand  2-diag
   LASPH  =      F    aspherical Exc in radial PAW
   METAGGA=      F    non-selfconsistent MetaGGA calc.

 Electronic Relaxation 1
   ENCUT  =  420.0 eV  30.87 Ry    5.56 a.u.  13.04 10.26  9.91*2*pi/ulx,y,z
   ENINI  =  420.0     initial cutoff
   ENAUG  =  628.9 eV  augmentation charge cutoff
   NELM   =    100;   NELMIN=  2; NELMDL= -5     # of ELM steps 
   EDIFF  = 0.2E-04   stopping-criterion for ELM
   LREAL  =      T    real-space projection
   NLSPLINE    = F    spline interpolate recip. space projectors
   LCOMPAT=      F    compatible to vasp.4.4
   GGA_COMPAT  = T    GGA compatible to vasp.4.4-vasp.4.6
   LMAXPAW     = -100 max onsite density
   LMAXMIX     =    2 max onsite mixed and CHGCAR
   VOSKOWN=      0    Vosko Wilk Nusair interpolation
   ROPT   =   -0.00025  -0.00025  -0.00025
 Ionic relaxation
   EDIFFG = 0.2E-03   stopping-criterion for IOM
   NSW    =    100    number of steps for IOM
   NBLOCK =      1;   KBLOCK =    100    inner block; outer block 
   IBRION =      2    ionic relax: 0-MD 1-quasi-New 2-CG
   NFREE  =      1    steps in history (QN), initial steepest desc. (CG)
   ISIF   =      3    stress and relaxation
   IWAVPR =     11    prediction:  0-non 1-charg 2-wave 3-comb
   ISYM   =      2    0-nonsym 1-usesym 2-fastsym
   LCORR  =      T    Harris-Foulkes like correction to forces

   POTIM  = 0.5000    time-step for ionic-motion
   TEIN   =    0.0    initial temperature
   TEBEG  =    0.0;   TEEND  =   0.0 temperature during run
   SMASS  =  -3.00    Nose mass-parameter (am)
   estimated Nose-frequenzy (Omega)   =  0.10E-29 period in steps =****** mass=  -0.139E-26a.u.
   SCALEE = 1.0000    scale energy and forces
   NPACO  =    256;   APACO  = 16.0  distance and # of slots for P.C.
   PSTRESS=    0.0 pullay stress

  Mass of Ions in am
   POMASS =  30.97 32.07  7.01
  Ionic Valenz
   ZVAL   =   5.00  6.00  3.00
  Atomic Wigner-Seitz radii
   RWIGS  =  -1.00 -1.00 -1.00
  virtual crystal weights 
   VCA    =   1.00  1.00  1.00
   NELECT =      76.0000    total number of electrons
   NUPDOWN=      -1.0000    fix difference up-down

 DOS related values:
   EMIN   =  10.00;   EMAX   =-10.00  energy-range for DOS
   EFERMI =   0.00
   ISMEAR =    -5;   SIGMA  =   0.20  broadening in eV -4-tet -1-fermi 0-gaus

 Electronic relaxation 2 (details)
   IALGO  =     68    algorithm
   LDIAG  =      T    sub-space diagonalisation (order eigenvalues)
   LSUBROT=      F    optimize rotation matrix (better conditioning)
   TURBO    =      0    0=normal 1=particle mesh
   IRESTART =      0    0=no restart 2=restart with 2 vectors
   NREBOOT  =      0    no. of reboots
   NMIN     =      0    reboot dimension
   EREF     =   0.00    reference energy to select bands
   IMIX   =      4    mixing-type and parameters
     AMIX     =   0.40;   BMIX     =  1.00
     AMIX_MAG =   1.60;   BMIX_MAG =  1.00
     AMIN     =   0.10
     WC   =   100.;   INIMIX=   1;  MIXPRE=   1;  MAXMIX= -45

 Intra band minimization:
   WEIMIN = 0.0010     energy-eigenvalue tresh-hold
   EBREAK =  0.10E-06  absolut break condition
   DEPER  =   0.30     relativ break condition  

   TIME   =   0.40     timestep for ELM

  volume/ion in A,a.u.               =      17.75       119.78
  Fermi-wavevector in a.u.,A,eV,Ry     =   1.054968  1.993601 15.142717  1.112958
  Thomas-Fermi vector in A             =   2.190149
 
 Write flags
   LWAVE        =      F    write WAVECAR
   LDOWNSAMPLE  =      F    k-point downsampling of WAVECAR
   LCHARG       =      F    write CHGCAR
   LVTOT        =      F    write LOCPOT, total local potential
   LVHAR        =      F    write LOCPOT, Hartree potential only
   LELF         =      F    write electronic localiz. function (ELF)
   LORBIT       =      0    0 simple, 1 ext, 2 COOP (PROOUT), +10 PAW based schemes


 Dipole corrections
   LMONO  =      F    monopole corrections only (constant potential shift)
   LDIPOL =      F    correct potential (dipole corrections)
   IDIPOL =      0    1-x, 2-y, 3-z, 4-all directions 
   EPSILON=  1.0000000 bulk dielectric constant

 Exchange correlation treatment:
   GGA     =    --    GGA type
   LEXCH   =     2    internal setting for exchange type
   VOSKOWN=      0    Vosko Wilk Nusair interpolation
   LHFCALC =     F    Hartree Fock is set to
   LHFONE  =     F    Hartree Fock one center treatment
   AEXX    =    0.0000 exact exchange contribution

 Linear response parameters
   LEPSILON=     F    determine dielectric tensor
   LRPA    =     F    only Hartree local field effects (RPA)
   LNABLA  =     F    use nabla operator in PAW spheres
   LVEL    =     F    velocity operator in full k-point grid
   LINTERFAST=   F  fast interpolation
   KINTER  =     0    interpolate to denser k-point grid
   CSHIFT  =0.1000    complex shift for real part using Kramers Kronig
   OMEGAMAX=  -1.0    maximum frequency
   DEG_THRESHOLD= 0.2000000E-02 threshold for treating states as degnerate
   RTIME   =   -0.100 relaxation time in fs
  (WPLASMAI=    0.000 imaginary part of plasma frequency in eV, 0.658/RTIME)
   DFIELD  = 0.0000000 0.0000000 0.0000000 field for delta impulse in time
 
 Orbital magnetization related:
   ORBITALMAG=     F  switch on orbital magnetization
   LCHIMAG   =     F  perturbation theory with respect to B field
   DQ        =  0.001000  dq finite difference perturbation B field
   LLRAUG    =     F  two centre corrections for induced B field



--------------------------------------------------------------------------------------------------------


 conjugate gradient relaxation of ions
 charge density and potential will be updated during run
 non-spin polarized calculation
 RMM-DIIS sequential band-by-band and
  variant of blocked Davidson during initial phase
 perform sub-space diagonalisation
    before iterative eigenvector-optimisation
 modified Broyden-mixing scheme, WC =      100.0
 initial mixing is a Kerker type mixing with AMIX =  0.4000 and BMIX =      1.0000
 Hartree-type preconditioning will be used
 using additional bands           10
 real space projection scheme for non local part
 use partial core corrections
 calculate Harris-corrections to forces 
   (improved forces if not selfconsistent)
 use of overlap-Matrix (Vanderbilt PP)
 Fermi weights with tetrahedron method with Bloechl corrections


--------------------------------------------------------------------------------------------------------


  energy-cutoff  :      420.00
  volume of cell :      284.00
      direct lattice vectors                 reciprocal lattice vectors
     7.801052185  0.000000000  0.000000000     0.128187836  0.000000000  0.000000000
     0.000000000  6.138096377  0.000000000     0.000000000  0.162916960  0.000000000
     0.000000000  0.000000000  5.931067570     0.000000000  0.000000000  0.168603711

  length of vectors
     7.801052185  6.138096377  5.931067570     0.128187836  0.162916960  0.168603711


 
 k-points in units of 2pi/SCALE and weight: Automatic mesh                          
   0.01602348  0.02036462  0.02107546       0.125
   0.04807044  0.02036462  0.02107546       0.125
   0.01602348  0.06109386  0.02107546       0.125
   0.04807044  0.06109386  0.02107546       0.125
   0.01602348  0.02036462  0.06322639       0.125
   0.04807044  0.02036462  0.06322639       0.125
   0.01602348  0.06109386  0.06322639       0.125
   0.04807044  0.06109386  0.06322639       0.125
 
 k-points in reciprocal lattice and weights: Automatic mesh                          
   0.12500000  0.12500000  0.12500000       0.125
   0.37500000  0.12500000  0.12500000       0.125
   0.12500000  0.37500000  0.12500000       0.125
   0.37500000  0.37500000  0.12500000       0.125
   0.12500000  0.12500000  0.37500000       0.125
   0.37500000  0.12500000  0.37500000       0.125
   0.12500000  0.37500000  0.37500000       0.125
   0.37500000  0.37500000  0.37500000       0.125
 
 position of ions in fractional coordinates (direct lattice) 
   0.00000000  0.77137220  0.43993650
   0.50000000  0.22862780  0.93993650
   0.20794023  0.59959138  0.55015078
   0.29205977  0.40040862  0.05015078
   0.70794023  0.40040862  0.05015078
   0.79205977  0.59959138  0.55015078
   0.00000000  0.82349321  0.10162874
   0.50000000  0.17650679  0.60162874
   0.00000000  0.06133187  0.60500657
   0.50000000  0.93866813  0.10500657
   0.00000000  0.43237490  0.85391218
   0.50000000  0.56762510  0.35391218
   0.26661444  0.76773999  0.91378971
   0.23338556  0.23226001  0.41378971
   0.76661444  0.23226001  0.41378971
   0.73338556  0.76773999  0.91378971
 
 position of ions in cartesian coordinates  (Angst):
   0.00000000  4.73475691  2.60929309
   3.90052609  1.40333947  5.57482687
   1.62215259  3.68034967  3.26298148
   2.27837350  2.45774671  0.29744769
   5.52267868  2.45774671  0.29744769
   6.17889960  3.68034967  3.26298148
   0.00000000  5.05468071  0.60276694
   3.90052609  1.08341567  3.56830073
   0.00000000  0.37646090  3.58833484
   3.90052609  5.76163547  0.62280106
   0.00000000  2.65395884  5.06461086
   3.90052609  3.48413754  2.09907707
   2.07987313  4.71246206  5.41974853
   1.82065296  1.42563431  2.45421475
   5.98039923  1.42563431  2.45421475
   5.72117905  4.71246206  5.41974853
 


--------------------------------------------------------------------------------------------------------


 k-point  1 :   0.1250 0.1250 0.1250  plane waves:    5552
 k-point  2 :   0.3750 0.1250 0.1250  plane waves:    5536
 k-point  3 :   0.1250 0.3750 0.1250  plane waves:    5539
 k-point  4 :   0.3750 0.3750 0.1250  plane waves:    5549
 k-point  5 :   0.1250 0.1250 0.3750  plane waves:    5555
 k-point  6 :   0.3750 0.1250 0.3750  plane waves:    5565
 k-point  7 :   0.1250 0.3750 0.3750  plane waves:    5554
 k-point  8 :   0.3750 0.3750 0.3750  plane waves:    5558

 maximum and minimum number of plane-waves per node :       357      335

 maximum number of plane-waves:      5565
 maximum index in each direction: 
   IXMAX=   12   IYMAX=   10   IZMAX=    9
   IXMIN=  -13   IYMIN=  -10   IZMIN=  -10


 real space projection operators:
  total allocation   :       2691.81 KBytes
  max/ min on nodes  :        205.22        145.76


 parallel 3D FFT for wavefunctions:
    minimum data exchange during FFTs selected (reduces bandwidth)
 parallel 3D FFT for charge:
    minimum data exchange during FFTs selected (reduces bandwidth)


 total amount of memory used by VASP MPI-rank0    33596. kBytes
=======================================================================

   base      :      30000. kBytes
   nonlr-proj:       1231. kBytes
   fftplans  :        656. kBytes
   grid      :       1147. kBytes
   one-center:          3. kBytes
   wavefun   :        559. kBytes
 
     INWAV:  cpu time    0.0000: real time    0.0002
 Broyden mixing: mesh for mixing (old mesh)
   NGX = 27   NGY = 21   NGZ = 19
  (NGX  =108   NGY  = 84   NGZ  = 80)
  gives a total of  10773 points

 initial charge density was supplied:
 charge density of overlapping atoms calculated
 number of electron      76.0000000 magnetization 
 keeping initial charge density in first step


--------------------------------------------------------------------------------------------------------


 Maximum index for non-local projection operator          437
 Maximum index for augmentation-charges          547 (set IRDMAX)


--------------------------------------------------------------------------------------------------------


 First call to EWALD:  gamma=   0.270
 Maximum number of real-space cells 2x 3x 3
 Maximum number of reciprocal cells 3x 3x 3

    FEWALD:  cpu time    0.0018: real time    0.0018


--------------------------------------- Iteration      1(   1)  ---------------------------------------


    POTLOK:  cpu time    0.0056: real time    0.0086
    SETDIJ:  cpu time    0.0037: real time    0.0046
     EDDAV:  cpu time    0.1971: real time    0.2058
 BZINTS: Fermi energy: 15.097983; 75.988479 electrons
         Band energy:-106.178500;  BLOECHL correction: -0.032157
       DOS:  cpu time    0.0118: real time    0.0119
    --------------------------------------------
      LOOP:  cpu time    0.2183: real time    0.2309

 eigenvalue-minimisations  :   768
 total energy-change (2. order) : 0.5013972E+03  (-0.2879293E+04)
 number of electron      76.0000000 magnetization 
 augmentation part       76.0000000 magnetization 

 Free energy of the ion-electron system (eV)
  ---------------------------------------------------
  alpha Z        PSCENC =        69.48202035
  Ewald energy   TEWEN  =     -2742.48519896
  -Hartree energ DENC   =      -623.66033883
  -exchange      EXHF   =         0.00000000
  -V(xc)+E(xc)   XCENC  =       182.04906479
  PAW double counting   =      2494.22442938    -2541.12215007
  entropy T*S    EENTRO =         0.00000000
  eigenvalues    EBANDS =      -106.17850028
  atomic energy  EATOM  =      3769.08782378
  Solvation  Ediel_sol  =         0.00000000
  ---------------------------------------------------
  free energy    TOTEN  =       501.39715016 eV

  energy without entropy =      501.39715016  energy(sigma->0) =      501.39715016


--------------------------------------------------------------------------------------------------------




--------------------------------------- Iteration      1(   2)  ---------------------------------------


     EDDAV:  cpu time    0.1917: real time    0.1917
 BZINTS: Fermi energy:  5.468609; 76.000000 electrons
         Band energy:-618.788814;  BLOECHL correction:  0.000000
       DOS:  cpu time    0.0015: real time    0.0015
    --------------------------------------------
      LOOP:  cpu time    0.1932: real time    0.1932

 eigenvalue-minimisations  :   912
 total energy-change (2. order) :-0.5126103E+03  (-0.4886728E+03)
 number of electron      76.0000000 magnetization 
 augmentation part       76.0000000 magnetization 

 Free energy of the ion-electron system (eV)
  ---------------------------------------------------
  alpha Z        PSCENC =        69.48202035
  Ewald energy   TEWEN  =     -2742.48519896
  -Hartree energ DENC   =      -623.66033883
  -exchange      EXHF   =         0.00000000
  -V(xc)+E(xc)   XCENC  =       182.04906479
  PAW double counting   =      2494.22442938    -2541.12215007
  entropy T*S    EENTRO =         0.00000000
  eigenvalues    EBANDS =      -618.78881398
  atomic energy  EATOM  =      3769.08782378
  Solvation  Ediel_sol  =         0.00000000
  ---------------------------------------------------
  free energy    TOTEN  =       -11.21316354 eV

  energy without entropy =      -11.21316354  energy(sigma->0) =      -11.21316354


--------------------------------------------------------------------------------------------------------




--------------------------------------- Iteration      1(   3)  ---------------------------------------


     EDDAV:  cpu time    0.2192: real time    0.2192
 BZINTS: Fermi energy:  2.109114; 76.000000 electrons
         Band energy:-679.608145;  BLOECHL correction:  0.000000
       DOS:  cpu time    0.0012: real time    0.0012
    --------------------------------------------
      LOOP:  cpu time    0.2205: real time    0.2205

 eigenvalue-minimisations  :  1056
 total energy-change (2. order) :-0.6081933E+02  (-0.6032452E+02)
 number of electron      76.0000000 magnetization 
 augmentation part       76.0000000 magnetization 

 Free energy of the ion-electron system (eV)
  ---------------------------------------------------
  alpha Z        PSCENC =        69.48202035
  Ewald energy   TEWEN  =     -2742.48519896
  -Hartree energ DENC   =      -623.66033883
  -exchange      EXHF   =         0.00000000
  -V(xc)+E(xc)   XCENC  =       182.04906479
  PAW double counting   =      2494.22442938    -2541.12215007
  entropy T*S    EENTRO =         0.00000000
  eigenvalues    EBANDS =      -679.60814456
  atomic energy  EATOM  =      3769.08782378
  Solvation  Ediel_sol  =         0.00000000
  ---------------------------------------------------
  free energy    TOTEN  =       -72.03249411 eV

  energy without entropy =      -72.03249411  energy(sigma->0) =      -72.03249411


--------------------------------------------------------------------------------------------------------




--------------------------------------- Iteration      1(   4)  ---------------------------------------


     EDDAV:  cpu time    0.2743: real time    0.2743
 BZINTS: Fermi energy:  2.106192; 76.000000 electrons
         Band energy:-686.128256;  BLOECHL correction:  0.000000
       DOS:  cpu time    0.0012: real time    0.0012
    --------------------------------------------
      LOOP:  cpu time    0.2755: real time    0.2755

 eigenvalue-minimisations  :  1424
 total energy-change (2. order) :-0.6520112E+01  (-0.6496414E+01)
 number of electron      76.0000000 magnetization 
 augmentation part       76.0000000 magnetization 

 Free energy of the ion-electron system (eV)
  ---------------------------------------------------
  alpha Z        PSCENC =        69.48202035
  Ewald energy   TEWEN  =     -2742.48519896
  -Hartree energ DENC   =      -623.66033883
  -exchange      EXHF   =         0.00000000
  -V(xc)+E(xc)   XCENC  =       182.04906479
  PAW double counting   =      2494.22442938    -2541.12215007
  entropy T*S    EENTRO =         0.00000000
  eigenvalues    EBANDS =      -686.12825646
  atomic energy  EATOM  =      3769.08782378
  Solvation  Ediel_sol  =         0.00000000
  ---------------------------------------------------
  free energy    TOTEN  =       -78.55260602 eV

  energy without entropy =      -78.55260602  energy(sigma->0) =      -78.55260602


--------------------------------------------------------------------------------------------------------




--------------------------------------- Iteration      1(   5)  ---------------------------------------


     EDDAV:  cpu time    0.2260: real time    0.2261
 BZINTS: Fermi energy:  2.081824; 76.000000 electrons
         Band energy:-686.944607;  BLOECHL correction:  0.000000
       DOS:  cpu time    0.0015: real time    0.0015
    CHARGE:  cpu time    0.0180: real time    0.0182
    MIXING:  cpu time    0.0006: real time    0.0015
    --------------------------------------------
      LOOP:  cpu time    0.2461: real time    0.2473

 eigenvalue-minimisations  :  1120
 total energy-change (2. order) :-0.8163509E+00  (-0.8161965E+00)
 number of electron      76.0000013 magnetization 
 augmentation part       -1.7154454 magnetization 

 Broyden mixing:
  rms(total) = 0.23025E+01    rms(broyden)= 0.23019E+01
  rms(prec ) = 0.25238E+01
  weight for this iteration     100.00

 Free energy of the ion-electron system (eV)
  ---------------------------------------------------
  alpha Z        PSCENC =        69.48202035
  Ewald energy   TEWEN  =     -2742.48519896
  -Hartree energ DENC   =      -623.66033883
  -exchange      EXHF   =         0.00000000
  -V(xc)+E(xc)   XCENC  =       182.04906479
  PAW double counting   =      2494.22442938    -2541.12215007
  entropy T*S    EENTRO =         0.00000000
  eigenvalues    EBANDS =      -686.94460737
  atomic energy  EATOM  =      3769.08782378
  Solvation  Ediel_sol  =         0.00000000
  ---------------------------------------------------
  free energy    TOTEN  =       -79.36895692 eV

  energy without entropy =      -79.36895692  energy(sigma->0) =      -79.36895692


--------------------------------------------------------------------------------------------------------




--------------------------------------- Iteration      1(   6)  ---------------------------------------


    POTLOK:  cpu time    0.0044: real time    0.0045
    SETDIJ:  cpu time    0.0014: real time    0.0014
    EDDIAG:  cpu time    0.0521: real time    0.0534
  RMM-DIIS:  cpu time    0.0855: real time    0.0855
    ORTHCH:  cpu time    0.0068: real time    0.0068
 BZINTS: Fermi energy:  2.471569; 76.000000 electrons
         Band energy:-670.776132;  BLOECHL correction:  0.000000
       DOS:  cpu time    0.0012: real time    0.0012
    CHARGE:  cpu time    0.0170: real time    0.0171
    MIXING:  cpu time    0.0005: real time    0.0005
    --------------------------------------------
      LOOP:  cpu time    0.1691: real time    0.1703

 eigenvalue-minimisations  :   808
 total energy-change (2. order) : 0.2059072E+01  (-0.6261049E+00)
 number of electron      76.0000013 magnetization 
 augmentation part       -1.6667452 magnetization 

 Broyden mixing:
  rms(total) = 0.15175E+01    rms(broyden)= 0.15175E+01
  rms(prec ) = 0.15767E+01
  weight for this iteration     100.00

 eigenvalues of (default mixing * dielectric matrix)
  average eigenvalue GAMMA=   2.4766
  2.4766

 Free energy of the ion-electron system (eV)
  ---------------------------------------------------
  alpha Z        PSCENC =        69.48202035
  Ewald energy   TEWEN  =     -2742.48519896
  -Hartree energ DENC   =      -637.50831560
  -exchange      EXHF   =         0.00000000
  -V(xc)+E(xc)   XCENC  =       183.60225082
  PAW double counting   =      3994.91723807    -4043.62957138
  entropy T*S    EENTRO =         0.00000000
  eigenvalues    EBANDS =      -670.77613189
  atomic energy  EATOM  =      3769.08782378
  Solvation  Ediel_sol  =         0.00000000
  ---------------------------------------------------
  free energy    TOTEN  =       -77.30988481 eV

  energy without entropy =      -77.30988481  energy(sigma->0) =      -77.30988481


--------------------------------------------------------------------------------------------------------




--------------------------------------- Iteration      1(   7)  ---------------------------------------


    POTLOK:  cpu time    0.0042: real time    0.0042
    SETDIJ:  cpu time    0.0012: real time    0.0012
    EDDIAG:  cpu time    0.0518: real time    0.0518
  RMM-DIIS:  cpu time    0.0862: real time    0.0862
    ORTHCH:  cpu time    0.0069: real time    0.0069
 BZINTS: Fermi energy:  2.871685; 76.000000 electrons
         Band energy:-655.817358;  BLOECHL correction:  0.000000
       DOS:  cpu time    0.0015: real time    0.0015
    CHARGE:  cpu time    0.0163: real time    0.0163
    MIXING:  cpu time    0.0006: real time    0.0006
    --------------------------------------------
      LOOP:  cpu time    0.1686: real time    0.1687

 eigenvalue-minimisations  :   819
 total energy-change (2. order) : 0.4214984E+00  (-0.2581475E+00)
 number of electron      76.0000013 magnetization 
 augmentation part       -1.6297098 magnetization 

 Broyden mixing:
  rms(total) = 0.39759E+00    rms(broyden)= 0.39759E+00
  rms(prec ) = 0.42255E+00
  weight for this iteration     100.00

 eigenvalues of (default mixing * dielectric matrix)
  average eigenvalue GAMMA=   1.9194
  1.4130  2.4258

 Free energy of the ion-electron system (eV)
  ---------------------------------------------------
  alpha Z        PSCENC =        69.48202035
  Ewald energy   TEWEN  =     -2742.48519896
  -Hartree energ DENC   =      -651.89854814
  -exchange      EXHF   =         0.00000000
  -V(xc)+E(xc)   XCENC  =       185.16933679
  PAW double counting   =      6793.18474639    -6843.61120841
  entropy T*S    EENTRO =         0.00000000
  eigenvalues    EBANDS =      -655.81735818
  atomic energy  EATOM  =      3769.08782378
  Solvation  Ediel_sol  =         0.00000000
  ---------------------------------------------------
  free energy    TOTEN  =       -76.88838640 eV

  energy without entropy =      -76.88838640  energy(sigma->0) =      -76.88838640


--------------------------------------------------------------------------------------------------------




--------------------------------------- Iteration      1(   8)  ---------------------------------------


    POTLOK:  cpu time    0.0040: real time    0.0040
    SETDIJ:  cpu time    0.0013: real time    0.0013
    EDDIAG:  cpu time    0.0508: real time    0.0508
  RMM-DIIS:  cpu time    0.1054: real time    0.1054
    ORTHCH:  cpu time    0.0069: real time    0.0069
 BZINTS: Fermi energy:  2.744867; 76.000000 electrons
         Band energy:-655.667845;  BLOECHL correction:  0.000000
       DOS:  cpu time    0.0012: real time    0.0012
    CHARGE:  cpu time    0.0170: real time    0.0170
    MIXING:  cpu time    0.0006: real time    0.0006
    --------------------------------------------
      LOOP:  cpu time    0.1871: real time    0.1871

 eigenvalue-minimisations  :   964
 total energy-change (2. order) : 0.7395768E-01  (-0.2344440E-01)
 number of electron      76.0000013 magnetization 
 augmentation part       -1.6585244 magnetization 

 Broyden mixing:
  rms(total) = 0.57795E-01    rms(broyden)= 0.57765E-01
  rms(prec ) = 0.70895E-01
  weight for this iteration     100.00

 eigenvalues of (default mixing * dielectric matrix)
  average eigenvalue GAMMA=   1.6936
  1.0503  1.7897  2.2406

 Free energy of the ion-electron system (eV)
  ---------------------------------------------------
  alpha Z        PSCENC =        69.48202035
  Ewald energy   TEWEN  =     -2742.48519896
  -Hartree energ DENC   =      -651.92986556
  -exchange      EXHF   =         0.00000000
  -V(xc)+E(xc)   XCENC  =       185.22393453
  PAW double counting   =      7539.28118313    -7589.80648078
  entropy T*S    EENTRO =         0.00000000
  eigenvalues    EBANDS =      -655.66784520
  atomic energy  EATOM  =      3769.08782378
  Solvation  Ediel_sol  =         0.00000000
  ---------------------------------------------------
  free energy    TOTEN  =       -76.81442872 eV

  energy without entropy =      -76.81442872  energy(sigma->0) =      -76.81442872


--------------------------------------------------------------------------------------------------------




--------------------------------------- Iteration      1(   9)  ---------------------------------------


    POTLOK:  cpu time    0.0039: real time    0.0039
    SETDIJ:  cpu time    0.0014: real time    0.0014
    EDDIAG:  cpu time    0.0513: real time    0.0513
  RMM-DIIS:  cpu time    0.1040: real time    0.1040
    ORTHCH:  cpu time    0.0068: real time    0.0068
 BZINTS: Fermi energy:  2.742216; 76.000000 electrons
         Band energy:-656.768083;  BLOECHL correction:  0.000000
       DOS:  cpu time    0.0012: real time    0.0012
    CHARGE:  cpu time    0.0165: real time    0.0165
    MIXING:  cpu time    0.0006: real time    0.0006
    --------------------------------------------
      LOOP:  cpu time    0.1858: real time    0.1858

 eigenvalue-minimisations  :   992
 total energy-change (2. order) : 0.6056053E-02  (-0.3566020E-02)
 number of electron      76.0000013 magnetization 
 augmentation part       -1.6743075 magnetization 

 Broyden mixing:
  rms(total) = 0.22857E-01    rms(broyden)= 0.22839E-01
  rms(prec ) = 0.24618E-01
  weight for this iteration     100.00

 eigenvalues of (default mixing * dielectric matrix)
  average eigenvalue GAMMA=   1.7681
  2.1969  1.2109  1.8322  1.8322

 Free energy of the ion-electron system (eV)
  ---------------------------------------------------
  alpha Z        PSCENC =        69.48202035
  Ewald energy   TEWEN  =     -2742.48519896
  -Hartree energ DENC   =      -650.78626610
  -exchange      EXHF   =         0.00000000
  -V(xc)+E(xc)   XCENC  =       185.15848504
  PAW double counting   =      7448.90524044    -7499.40239389
  entropy T*S    EENTRO =         0.00000000
  eigenvalues    EBANDS =      -656.76808334
  atomic energy  EATOM  =      3769.08782378
  Solvation  Ediel_sol  =         0.00000000
  ---------------------------------------------------
  free energy    TOTEN  =       -76.80837267 eV

  energy without entropy =      -76.80837267  energy(sigma->0) =      -76.80837267


--------------------------------------------------------------------------------------------------------




--------------------------------------- Iteration      1(  10)  ---------------------------------------


    POTLOK:  cpu time    0.0039: real time    0.0039
    SETDIJ:  cpu time    0.0014: real time    0.0014
    EDDIAG:  cpu time    0.0514: real time    0.0514
  RMM-DIIS:  cpu time    0.1268: real time    0.1268
    ORTHCH:  cpu time    0.0068: real time    0.0068
 BZINTS: Fermi energy:  2.741234; 76.000000 electrons
         Band energy:-656.400832;  BLOECHL correction:  0.000000
       DOS:  cpu time    0.0012: real time    0.0012
    CHARGE:  cpu time    0.0165: real time    0.0165
    MIXING:  cpu time    0.0006: real time    0.0006
    --------------------------------------------
      LOOP:  cpu time    0.2087: real time    0.2087

 eigenvalue-minimisations  :  1195
 total energy-change (2. order) :-0.3051389E-03  (-0.8024891E-03)
 number of electron      76.0000013 magnetization 
 augmentation part       -1.6783299 magnetization 

 Broyden mixing:
  rms(total) = 0.14716E-01    rms(broyden)= 0.14702E-01
  rms(prec ) = 0.15538E-01
  weight for this iteration     100.00

 eigenvalues of (default mixing * dielectric matrix)
  average eigenvalue GAMMA=   1.7855
  2.4129  2.4129  1.9779  1.2858  0.8378

 Free energy of the ion-electron system (eV)
  ---------------------------------------------------
  alpha Z        PSCENC =        69.48202035
  Ewald energy   TEWEN  =     -2742.48519896
  -Hartree energ DENC   =      -651.15606121
  -exchange      EXHF   =         0.00000000
  -V(xc)+E(xc)   XCENC  =       185.19138267
  PAW double counting   =      7425.60038493    -7476.12819734
  entropy T*S    EENTRO =         0.00000000
  eigenvalues    EBANDS =      -656.40083204
  atomic energy  EATOM  =      3769.08782378
  Solvation  Ediel_sol  =         0.00000000
  ---------------------------------------------------
  free energy    TOTEN  =       -76.80867781 eV

  energy without entropy =      -76.80867781  energy(sigma->0) =      -76.80867781


--------------------------------------------------------------------------------------------------------




--------------------------------------- Iteration      1(  11)  ---------------------------------------


    POTLOK:  cpu time    0.0039: real time    0.0039
    SETDIJ:  cpu time    0.0014: real time    0.0014
    EDDIAG:  cpu time    0.0537: real time    0.0537
  RMM-DIIS:  cpu time    0.1235: real time    0.1235
    ORTHCH:  cpu time    0.0069: real time    0.0069
 BZINTS: Fermi energy:  2.740533; 76.000000 electrons
         Band energy:-656.234046;  BLOECHL correction:  0.000000
       DOS:  cpu time    0.0012: real time    0.0012
    CHARGE:  cpu time    0.0167: real time    0.0167
    MIXING:  cpu time    0.0007: real time    0.0007
    --------------------------------------------
      LOOP:  cpu time    0.2079: real time    0.2079

 eigenvalue-minimisations  :  1104
 total energy-change (2. order) :-0.3965761E-03  (-0.4009389E-03)
 number of electron      76.0000013 magnetization 
 augmentation part       -1.6806427 magnetization 

 Broyden mixing:
  rms(total) = 0.54439E-02    rms(broyden)= 0.54299E-02
  rms(prec ) = 0.60064E-02
  weight for this iteration     100.00

 eigenvalues of (default mixing * dielectric matrix)
  average eigenvalue GAMMA=   1.6825
  2.4480  2.4480  1.6072  1.0479  1.2719  1.2719

 Free energy of the ion-electron system (eV)
  ---------------------------------------------------
  alpha Z        PSCENC =        69.48202035
  Ewald energy   TEWEN  =     -2742.48519896
  -Hartree energ DENC   =      -651.32643997
  -exchange      EXHF   =         0.00000000
  -V(xc)+E(xc)   XCENC  =       185.20669222
  PAW double counting   =      7395.41319503    -7445.95312097
  entropy T*S    EENTRO =         0.00000000
  eigenvalues    EBANDS =      -656.23404586
  atomic energy  EATOM  =      3769.08782378
  Solvation  Ediel_sol  =         0.00000000
  ---------------------------------------------------
  free energy    TOTEN  =       -76.80907438 eV

  energy without entropy =      -76.80907438  energy(sigma->0) =      -76.80907438


--------------------------------------------------------------------------------------------------------




--------------------------------------- Iteration      1(  12)  ---------------------------------------


    POTLOK:  cpu time    0.0039: real time    0.0039
    SETDIJ:  cpu time    0.0014: real time    0.0014
    EDDIAG:  cpu time    0.0523: real time    0.0523
  RMM-DIIS:  cpu time    0.1157: real time    0.1157
    ORTHCH:  cpu time    0.0069: real time    0.0069
 BZINTS: Fermi energy:  2.737767; 76.000000 electrons
         Band energy:-656.268849;  BLOECHL correction:  0.000000
       DOS:  cpu time    0.0012: real time    0.0012
    CHARGE:  cpu time    0.0166: real time    0.0166
    MIXING:  cpu time    0.0006: real time    0.0006
    --------------------------------------------
      LOOP:  cpu time    0.1986: real time    0.1986

 eigenvalue-minimisations  :  1098
 total energy-change (2. order) :-0.1597669E-03  (-0.1873637E-03)
 number of electron      76.0000013 magnetization 
 augmentation part       -1.6826640 magnetization 

 Broyden mixing:
  rms(total) = 0.25195E-02    rms(broyden)= 0.25071E-02
  rms(prec ) = 0.27499E-02
  weight for this iteration     100.00

 eigenvalues of (default mixing * dielectric matrix)
  average eigenvalue GAMMA=   1.5581
  2.3784  2.3784  1.8133  1.3439  1.3439  1.0529  0.5957

 Free energy of the ion-electron system (eV)
  ---------------------------------------------------
  alpha Z        PSCENC =        69.48202035
  Ewald energy   TEWEN  =     -2742.48519896
  -Hartree energ DENC   =      -651.29875142
  -exchange      EXHF   =         0.00000000
  -V(xc)+E(xc)   XCENC  =       185.20790957
  PAW double counting   =      7407.26706761    -7457.80125657
  entropy T*S    EENTRO =         0.00000000
  eigenvalues    EBANDS =      -656.26884850
  atomic energy  EATOM  =      3769.08782378
  Solvation  Ediel_sol  =         0.00000000
  ---------------------------------------------------
  free energy    TOTEN  =       -76.80923415 eV

  energy without entropy =      -76.80923415  energy(sigma->0) =      -76.80923415


--------------------------------------------------------------------------------------------------------




--------------------------------------- Iteration      1(  13)  ---------------------------------------


    POTLOK:  cpu time    0.0039: real time    0.0039
    SETDIJ:  cpu time    0.0014: real time    0.0014
    EDDIAG:  cpu time    0.0515: real time    0.0515
  RMM-DIIS:  cpu time    0.0850: real time    0.0851
    ORTHCH:  cpu time    0.0072: real time    0.0072
 BZINTS: Fermi energy:  2.734977; 76.000000 electrons
         Band energy:-656.245812;  BLOECHL correction:  0.000000
       DOS:  cpu time    0.0012: real time    0.0012
    CHARGE:  cpu time    0.0163: real time    0.0163
    MIXING:  cpu time    0.0007: real time    0.0007
    --------------------------------------------
      LOOP:  cpu time    0.1671: real time    0.1672

 eigenvalue-minimisations  :   796
 total energy-change (2. order) :-0.9470407E-04  (-0.1037055E-03)
 number of electron      76.0000013 magnetization 
 augmentation part       -1.6834715 magnetization 

 Broyden mixing:
  rms(total) = 0.17020E-02    rms(broyden)= 0.16943E-02
  rms(prec ) = 0.18852E-02
  weight for this iteration     100.00

 eigenvalues of (default mixing * dielectric matrix)
  average eigenvalue GAMMA=   1.7973
  3.0207  2.6235  2.1256  2.1256  1.4164  1.0716  0.9975  0.9975

 Free energy of the ion-electron system (eV)
  ---------------------------------------------------
  alpha Z        PSCENC =        69.48202035
  Ewald energy   TEWEN  =     -2742.48519896
  -Hartree energ DENC   =      -651.33135518
  -exchange      EXHF   =         0.00000000
  -V(xc)+E(xc)   XCENC  =       185.21033192
  PAW double counting   =      7406.14827054    -7456.67540977
  entropy T*S    EENTRO =         0.00000000
  eigenvalues    EBANDS =      -656.24581153
  atomic energy  EATOM  =      3769.08782378
  Solvation  Ediel_sol  =         0.00000000
  ---------------------------------------------------
  free energy    TOTEN  =       -76.80932885 eV

  energy without entropy =      -76.80932885  energy(sigma->0) =      -76.80932885


--------------------------------------------------------------------------------------------------------




--------------------------------------- Iteration      1(  14)  ---------------------------------------


    POTLOK:  cpu time    0.0036: real time    0.0040
    SETDIJ:  cpu time    0.0013: real time    0.0013
    EDDIAG:  cpu time    0.0509: real time    0.0509
  RMM-DIIS:  cpu time    0.0957: real time    0.0957
    ORTHCH:  cpu time    0.0069: real time    0.0069
 BZINTS: Fermi energy:  2.732555; 76.000000 electrons
         Band energy:-656.244424;  BLOECHL correction:  0.000000
       DOS:  cpu time    0.0012: real time    0.0012
    CHARGE:  cpu time    0.0161: real time    0.0161
    MIXING:  cpu time    0.0007: real time    0.0007
    --------------------------------------------
      LOOP:  cpu time    0.1764: real time    0.1767

 eigenvalue-minimisations  :   880
 total energy-change (2. order) :-0.4476039E-04  (-0.5004660E-04)
 number of electron      76.0000013 magnetization 
 augmentation part       -1.6841329 magnetization 

 Broyden mixing:
  rms(total) = 0.40930E-03    rms(broyden)= 0.39784E-03
  rms(prec ) = 0.70168E-03
  weight for this iteration     100.00

 eigenvalues of (default mixing * dielectric matrix)
  average eigenvalue GAMMA=   1.7150
  3.0909  2.4384  2.1081  2.1081  1.6175  1.3615  0.9944  0.8583  0.8583

 Free energy of the ion-electron system (eV)
  ---------------------------------------------------
  alpha Z        PSCENC =        69.48202035
  Ewald energy   TEWEN  =     -2742.48519896
  -Hartree energ DENC   =      -651.35121347
  -exchange      EXHF   =         0.00000000
  -V(xc)+E(xc)   XCENC  =       185.21322410
  PAW double counting   =      7403.78162351    -7454.29322893
  entropy T*S    EENTRO =         0.00000000
  eigenvalues    EBANDS =      -656.24442399
  atomic energy  EATOM  =      3769.08782378
  Solvation  Ediel_sol  =         0.00000000
  ---------------------------------------------------
  free energy    TOTEN  =       -76.80937361 eV

  energy without entropy =      -76.80937361  energy(sigma->0) =      -76.80937361


--------------------------------------------------------------------------------------------------------




--------------------------------------- Iteration      1(  15)  ---------------------------------------


    POTLOK:  cpu time    0.0037: real time    0.0041
    SETDIJ:  cpu time    0.0013: real time    0.0013
    EDDIAG:  cpu time    0.0512: real time    0.0512
  RMM-DIIS:  cpu time    0.0774: real time    0.0774
    ORTHCH:  cpu time    0.0072: real time    0.0072
 BZINTS: Fermi energy:  2.729745; 76.000000 electrons
         Band energy:-656.235450;  BLOECHL correction:  0.000000
       DOS:  cpu time    0.0012: real time    0.0012
    CHARGE:  cpu time    0.0165: real time    0.0165
    MIXING:  cpu time    0.0007: real time    0.0007
    --------------------------------------------
      LOOP:  cpu time    0.1593: real time    0.1597

 eigenvalue-minimisations  :   762
 total energy-change (2. order) :-0.2664065E-04  (-0.3145732E-04)
 number of electron      76.0000013 magnetization 
 augmentation part       -1.6844686 magnetization 

 Broyden mixing:
  rms(total) = 0.31792E-03    rms(broyden)= 0.31133E-03
  rms(prec ) = 0.37388E-03
  weight for this iteration     100.00

 eigenvalues of (default mixing * dielectric matrix)
  average eigenvalue GAMMA=   1.6183
  3.1561  2.4210  2.2288  2.2288  1.6710  1.3553  1.0057  0.8405  0.8405  0.4356

 Free energy of the ion-electron system (eV)
  ---------------------------------------------------
  alpha Z        PSCENC =        69.48202035
  Ewald energy   TEWEN  =     -2742.48519896
  -Hartree energ DENC   =      -651.35995370
  -exchange      EXHF   =         0.00000000
  -V(xc)+E(xc)   XCENC  =       185.21355152
  PAW double counting   =      7403.54243605    -7454.05462898
  entropy T*S    EENTRO =         0.00000000
  eigenvalues    EBANDS =      -656.23545030
  atomic energy  EATOM  =      3769.08782378
  Solvation  Ediel_sol  =         0.00000000
  ---------------------------------------------------
  free energy    TOTEN  =       -76.80940025 eV

  energy without entropy =      -76.80940025  energy(sigma->0) =      -76.80940025


--------------------------------------------------------------------------------------------------------




--------------------------------------- Iteration      1(  16)  ---------------------------------------


    POTLOK:  cpu time    0.0035: real time    0.0039
    SETDIJ:  cpu time    0.0014: real time    0.0014
    EDDIAG:  cpu time    0.0505: real time    0.0505
  RMM-DIIS:  cpu time    0.0694: real time    0.0694
    ORTHCH:  cpu time    0.0069: real time    0.0069
 BZINTS: Fermi energy:  2.727035; 76.000000 electrons
         Band energy:-656.234582;  BLOECHL correction:  0.000000
       DOS:  cpu time    0.0012: real time    0.0012
    --------------------------------------------
      LOOP:  cpu time    0.1328: real time    0.1332

 eigenvalue-minimisations  :   633
 total energy-change (2. order) :-0.1144891E-04  (-0.1411532E-04)
 number of electron      76.0000013 magnetization 
 augmentation part       -1.6844686 magnetization 

 Free energy of the ion-electron system (eV)
  ---------------------------------------------------
  alpha Z        PSCENC =        69.48202035
  Ewald energy   TEWEN  =     -2742.48519896
  -Hartree energ DENC   =      -651.36174605
  -exchange      EXHF   =         0.00000000
  -V(xc)+E(xc)   XCENC  =       185.21372049
  PAW double counting   =      7403.54143319    -7454.05288286
  entropy T*S    EENTRO =         0.00000000
  eigenvalues    EBANDS =      -656.23458165
  atomic energy  EATOM  =      3769.08782378
  Solvation  Ediel_sol  =         0.00000000
  ---------------------------------------------------
  free energy    TOTEN  =       -76.80941170 eV

  energy without entropy =      -76.80941170  energy(sigma->0) =      -76.80941170


--------------------------------------------------------------------------------------------------------




 average (electrostatic) potential at core
  the test charge radii are     0.9587  0.9698  0.7079
  (the norm of the test charge is              1.0000)
       1 -88.0295       2 -88.0295       3 -88.0855       4 -88.0855       5 -88.0855
       6 -88.0855       7 -88.0466       8 -88.0466       9 -88.0178      10 -88.0178
      11 -64.3517      12 -64.3517      13 -63.6087      14 -63.6087      15 -63.6087
      16 -63.6087
 
 
 
 E-fermi :   2.7270     XC(G=0):  -9.1786     alpha+bet :-10.6343


 k-point     1 :       0.1250    0.1250    0.1250
  band No.  band energies     occupation 
      1     -41.4974      2.00000
      2     -41.4974      2.00000
      3     -40.7772      2.00000
      4     -40.7769      2.00000
      5     -40.7765      2.00000
      6     -40.7763      2.00000
      7     -12.4045      2.00000
      8     -12.2306      2.00000
      9      -9.4815      2.00000
     10      -9.3397      2.00000
     11      -9.3063      2.00000
     12      -9.0707      2.00000
     13      -9.0146      2.00000
     14      -8.9214      2.00000
     15      -5.4165      2.00000
     16      -4.8156      2.00000
     17      -2.5296      2.00000
     18      -2.3472      2.00000
     19      -2.1984      2.00000
     20      -2.0739      2.00000
     21      -1.9351      2.00000
     22      -1.8120      2.00000
     23      -0.1616      2.00000
     24      -0.0419      2.00000
     25       0.2064      2.00000
     26       0.4670      2.00000
     27       0.6792      2.00000
     28       0.9392      2.00000
     29       1.1184      2.00000
     30       1.3206      2.00000
     31       1.5597      2.00000
     32       1.5914      2.00000
     33       1.8304      2.00000
     34       1.9777      2.00000
     35       2.1197      2.00000
     36       2.2654      2.00000
     37       2.4927      2.00000
     38       2.7195      2.00000
     39       5.7423      0.00000
     40       6.0801      0.00000
     41       6.4026      0.00000
     42       6.5826      0.00000
     43       6.9054      0.00000
     44       7.2355      0.00000
     45       7.4515      0.00000
     46       7.5656      0.00000
     47       8.1456      0.00000
     48       8.7862      0.00000

 k-point     2 :       0.3750    0.1250    0.1250
  band No.  band energies     occupation 
      1     -41.4974      2.00000
      2     -41.4974      2.00000
      3     -40.7770      2.00000
      4     -40.7769      2.00000
      5     -40.7765      2.00000
      6     -40.7764      2.00000
      7     -12.3561      2.00000
      8     -12.2842      2.00000
      9      -9.4100      2.00000
     10      -9.3434      2.00000
     11      -9.2761      2.00000
     12      -9.1786      2.00000
     13      -8.9925      2.00000
     14      -8.9466      2.00000
     15      -5.2293      2.00000
     16      -4.9807      2.00000
     17      -2.4727      2.00000
     18      -2.4067      2.00000
     19      -2.1834      2.00000
     20      -2.0865      2.00000
     21      -1.9127      2.00000
     22      -1.8503      2.00000
     23      -0.1633      2.00000
     24      -0.0817      2.00000
     25       0.4354      2.00000
     26       0.5378      2.00000
     27       0.7481      2.00000
     28       0.9523      2.00000
     29       1.0711      2.00000
     30       1.2760      2.00000
     31       1.4867      2.00000
     32       1.6211      2.00000
     33       1.7429      2.00000
     34       1.9458      2.00000
     35       1.9966      2.00000
     36       2.1166      2.00000
     37       2.4531      2.00000
     38       2.5661      2.00000
     39       5.9548      0.00000
     40       6.1617      0.00000
     41       6.6276      0.00000
     42       6.7605      0.00000
     43       7.0936      0.00000
     44       7.2111      0.00000
     45       7.3412      0.00000
     46       7.5067      0.00000
     47       8.4757      0.00000
     48       8.5145      0.00000

 k-point     3 :       0.1250    0.3750    0.1250
  band No.  band energies     occupation 
      1     -41.4975      2.00000
      2     -41.4974      2.00000
      3     -40.7771      2.00000
      4     -40.7770      2.00000
      5     -40.7764      2.00000
      6     -40.7763      2.00000
      7     -12.3476      2.00000
      8     -12.2442      2.00000
      9      -9.4891      2.00000
     10      -9.4495      2.00000
     11      -9.3223      2.00000
     12      -9.1097      2.00000
     13      -9.0139      2.00000
     14      -8.9323      2.00000
     15      -5.2083      2.00000
     16      -4.7741      2.00000
     17      -2.5367      2.00000
     18      -2.3490      2.00000
     19      -2.2159      2.00000
     20      -2.0640      2.00000
     21      -1.9018      2.00000
     22      -1.7469      2.00000
     23      -0.0841      2.00000
     24       0.0379      2.00000
     25       0.3431      2.00000
     26       0.4763      2.00000
     27       0.5422      2.00000
     28       0.8006      2.00000
     29       1.0404      2.00000
     30       1.1986      2.00000
     31       1.5058      2.00000
     32       1.6976      2.00000
     33       1.8251      2.00000
     34       1.9833      2.00000
     35       2.1402      2.00000
     36       2.2990      2.00000
     37       2.4162      2.00000
     38       2.6639      2.00000
     39       5.5715      0.00000
     40       6.1425      0.00000
     41       6.5124      0.00000
     42       6.6150      0.00000
     43       6.8985      0.00000
     44       7.0220      0.00000
     45       7.1873      0.00000
     46       7.5040      0.00000
     47       8.4406      0.00000
     48       8.6336      0.00000

 k-point     4 :       0.3750    0.3750    0.1250
  band No.  band energies     occupation 
      1     -41.4975      2.00000
      2     -41.4974      2.00000
      3     -40.7770      2.00000
      4     -40.7769      2.00000
      5     -40.7765      2.00000
      6     -40.7764      2.00000
      7     -12.3175      2.00000
      8     -12.2747      2.00000
      9      -9.4940      2.00000
     10      -9.4702      2.00000
     11      -9.2440      2.00000
     12      -9.1523      2.00000
     13      -9.0024      2.00000
     14      -8.9674      2.00000
     15      -5.0670      2.00000
     16      -4.8867      2.00000
     17      -2.4560      2.00000
     18      -2.3746      2.00000
     19      -2.1814      2.00000
     20      -2.1400      2.00000
     21      -1.8303      2.00000
     22      -1.7683      2.00000
     23      -0.0523      2.00000
     24       0.0431      2.00000
     25       0.1571      2.00000
     26       0.3550      2.00000
     27       0.7059      2.00000
     28       0.7815      2.00000
     29       0.9192      2.00000
     30       1.1568      2.00000
     31       1.5565      2.00000
     32       1.6539      2.00000
     33       1.8513      2.00000
     34       1.9660      2.00000
     35       2.1460      2.00000
     36       2.2470      2.00000
     37       2.4941      2.00000
     38       2.6349      2.00000
     39       5.7667      0.00000
     40       6.0277      0.00000
     41       6.6187      0.00000
     42       6.7475      0.00000
     43       7.0443      0.00000
     44       7.1829      0.00000
     45       7.3971      0.00000
     46       7.5328      0.00000
     47       8.5131      0.00000
     48       8.7578      0.00000

 k-point     5 :       0.1250    0.1250    0.3750
  band No.  band energies     occupation 
      1     -41.4974      2.00000
      2     -41.4974      2.00000
      3     -40.7771      2.00000
      4     -40.7770      2.00000
      5     -40.7764      2.00000
      6     -40.7764      2.00000
      7     -12.3105      2.00000
      8     -12.2343      2.00000
      9      -9.4585      2.00000
     10      -9.3624      2.00000
     11      -9.3151      2.00000
     12      -9.2010      2.00000
     13      -9.0915      2.00000
     14      -9.0790      2.00000
     15      -5.1251      2.00000
     16      -4.8586      2.00000
     17      -2.2269      2.00000
     18      -2.1458      2.00000
     19      -2.0816      2.00000
     20      -1.9841      2.00000
     21      -1.9110      2.00000
     22      -1.7613      2.00000
     23      -0.0119      2.00000
     24       0.0662      2.00000
     25       0.1335      2.00000
     26       0.3034      2.00000
     27       0.4692      2.00000
     28       0.6488      2.00000
     29       1.1276      2.00000
     30       1.3372      2.00000
     31       1.5140      2.00000
     32       1.6114      2.00000
     33       1.7572      2.00000
     34       1.9018      2.00000
     35       2.0627      2.00000
     36       2.2507      2.00000
     37       2.4496      2.00000
     38       2.6605      2.00000
     39       5.4079      0.00000
     40       5.7373      0.00000
     41       6.4251      0.00000
     42       6.5872      0.00000
     43       7.1215      0.00000
     44       7.2491      0.00000
     45       7.3678      0.00000
     46       7.5318      0.00000
     47       8.3029      0.00000
     48       8.6999      0.00000

 k-point     6 :       0.3750    0.1250    0.3750
  band No.  band energies     occupation 
      1     -41.4975      2.00000
      2     -41.4974      2.00000
      3     -40.7770      2.00000
      4     -40.7769      2.00000
      5     -40.7765      2.00000
      6     -40.7765      2.00000
      7     -12.2873      2.00000
      8     -12.2556      2.00000
      9      -9.4854      2.00000
     10      -9.4413      2.00000
     11      -9.2492      2.00000
     12      -9.2143      2.00000
     13      -9.0671      2.00000
     14      -9.0489      2.00000
     15      -5.0486      2.00000
     16      -4.9378      2.00000
     17      -2.2789      2.00000
     18      -2.2529      2.00000
     19      -2.0332      2.00000
     20      -1.9408      2.00000
     21      -1.7980      2.00000
     22      -1.7512      2.00000
     23      -0.0012      2.00000
     24       0.0200      2.00000
     25       0.2846      2.00000
     26       0.4039      2.00000
     27       0.5309      2.00000
     28       0.6632      2.00000
     29       1.1261      2.00000
     30       1.1953      2.00000
     31       1.4093      2.00000
     32       1.5092      2.00000
     33       1.7449      2.00000
     34       1.7850      2.00000
     35       1.9347      2.00000
     36       2.0369      2.00000
     37       2.5382      2.00000
     38       2.6708      2.00000
     39       5.5677      0.00000
     40       5.7277      0.00000
     41       6.6749      0.00000
     42       6.8350      0.00000
     43       7.0968      0.00000
     44       7.1785      0.00000
     45       7.4792      0.00000
     46       7.6025      0.00000
     47       8.3694      0.00000
     48       8.7098      0.00000

 k-point     7 :       0.1250    0.3750    0.3750
  band No.  band energies     occupation 
      1     -41.4975      2.00000
      2     -41.4974      2.00000
      3     -40.7771      2.00000
      4     -40.7770      2.00000
      5     -40.7764      2.00000
      6     -40.7764      2.00000
      7     -12.2713      2.00000
      8     -12.2259      2.00000
      9      -9.4504      2.00000
     10      -9.3969      2.00000
     11      -9.3341      2.00000
     12      -9.2809      2.00000
     13      -9.1428      2.00000
     14      -9.0994      2.00000
     15      -4.9358      2.00000
     16      -4.7515      2.00000
     17      -2.2400      2.00000
     18      -2.1893      2.00000
     19      -2.1250      2.00000
     20      -2.0453      2.00000
     21      -1.7975      2.00000
     22      -1.6259      2.00000
     23      -0.0522      2.00000
     24       0.2111      2.00000
     25       0.2986      2.00000
     26       0.4540      2.00000
     27       0.6103      2.00000
     28       0.7466      2.00000
     29       0.8888      2.00000
     30       1.0070      2.00000
     31       1.1702      2.00000
     32       1.2937      2.00000
     33       1.6641      2.00000
     34       2.0913      2.00000
     35       2.2188      2.00000
     36       2.3159      2.00000
     37       2.4547      2.00000
     38       2.5455      2.00000
     39       5.5575      0.00000
     40       5.8784      0.00000
     41       6.4819      0.00000
     42       6.7369      0.00000
     43       6.8054      0.00000
     44       6.9453      0.00000
     45       7.0954      0.00000
     46       7.2255      0.00000
     47       8.4654      0.00000
     48       8.6714      0.00000

 k-point     8 :       0.3750    0.3750    0.3750
  band No.  band energies     occupation 
      1     -41.4975      2.00000
      2     -41.4974      2.00000
      3     -40.7770      2.00000
      4     -40.7770      2.00000
      5     -40.7765      2.00000
      6     -40.7765      2.00000
      7     -12.2571      2.00000
      8     -12.2382      2.00000
      9      -9.4367      2.00000
     10      -9.4133      2.00000
     11      -9.3367      2.00000
     12      -9.3019      2.00000
     13      -9.1262      2.00000
     14      -9.1025      2.00000
     15      -4.8575      2.00000
     16      -4.7803      2.00000
     17      -2.2512      2.00000
     18      -2.2201      2.00000
     19      -2.0342      2.00000
     20      -1.9437      2.00000
     21      -1.8047      2.00000
     22      -1.7095      2.00000
     23      -0.1277      2.00000
     24      -0.0010      2.00000
     25       0.2861      2.00000
     26       0.3875      2.00000
     27       0.5837      2.00000
     28       0.6460      2.00000
     29       0.9967      2.00000
     30       1.0649      2.00000
     31       1.3321      2.00000
     32       1.3832      2.00000
     33       1.6398      2.00000
     34       1.8899      2.00000
     35       2.2057      2.00000
     36       2.2565      2.00000
     37       2.4965      2.00000
     38       2.5953      2.00000
     39       5.7241      0.00000
     40       5.8886      0.00000
     41       6.6324      0.00000
     42       6.6527      0.00000
     43       6.9287      0.00000
     44       7.1032      0.00000
     45       7.2577      0.00000
     46       7.3816      0.00000
     47       8.4764      0.00000
     48       8.6977      0.00000


--------------------------------------------------------------------------------------------------------


 soft charge-density along one line, spin component           1
         0         1         2         3         4         5         6         7         8         9
 total charge-density along one line
 
 pseudopotential strength for first ion, spin component:           1
 29.989  37.417   0.002   0.003  -0.000   0.002   0.005  -0.000
 37.417  46.689   0.002   0.004  -0.000   0.003   0.006  -0.000
  0.002   0.002   6.575  -0.001   0.000  10.181  -0.001   0.000
  0.003   0.004  -0.001   6.574  -0.000  -0.001  10.180  -0.000
 -0.000  -0.000   0.000  -0.000   6.574   0.000  -0.000  10.179
  0.002   0.003  10.181  -0.001   0.000  15.784  -0.002   0.000
  0.005   0.006  -0.001  10.180  -0.000  -0.002  15.783  -0.000
 -0.000  -0.000   0.000  -0.000  10.179   0.000  -0.000  15.781
 total augmentation occupancy for first ion, spin component:           1
 11.150  -6.447   0.074   0.275   0.000  -0.023  -0.115   0.000
 -6.447   4.206  -0.060  -0.221   0.000   0.016   0.085   0.000
  0.074  -0.060   4.358  -0.081   0.000  -1.461   0.041   0.000
  0.275  -0.221  -0.081   4.518   0.000   0.040  -1.526   0.000
  0.000   0.000   0.000   0.000   4.242   0.000   0.000  -1.398
 -0.023   0.016  -1.461   0.040   0.000   0.529  -0.019   0.000
 -0.115   0.085   0.041  -1.526   0.000  -0.019   0.558   0.000
  0.000   0.000   0.000   0.000  -1.398   0.000   0.000   0.500


------------------------ aborting loop because EDIFF is reached ----------------------------------------


    CHARGE:  cpu time    0.0168: real time    0.0168
    FORLOC:  cpu time    0.0008: real time    0.0008
    FORNL :  cpu time    0.0354: real time    0.0356
    STRESS:  cpu time    0.1023: real time    0.1033
    FORCOR:  cpu time    0.0034: real time    0.0034
    FORHAR:  cpu time    0.0025: real time    0.0025
    MIXING:  cpu time    0.0005: real time    0.0005
    OFIELD:  cpu time    0.0000: real time    0.0000

  FORCE on cell =-STRESS in cart. coord.  units (eV):
  Direction    XX          YY          ZZ          XY          YZ          ZX
  --------------------------------------------------------------------------------------
  Alpha Z    69.48202    69.48202    69.48202
  Ewald    -933.37851  -978.70641  -830.40533     0.00000    -0.00000    -0.00000
  Hartree   210.02083   178.76811   262.58725     0.00000     0.00000     0.00000
  E(xc)    -276.97773  -276.91657  -276.94456    -0.00000     0.00000     0.00000
  Local    -629.37544  -548.97750  -777.49679    -0.00000     0.00000    -0.00000
  n-local   612.87880   611.69392   611.54754    -0.42501     0.04594     0.00824
  augment   -42.92480   -42.60640   -42.21647     0.00000    -0.00000     0.00000
  Kinetic   988.78848   986.89428   983.35278    -0.01942    -0.13656     0.05034
  Fock        0.00000     0.00000     0.00000     0.00000     0.00000     0.00000
  -------------------------------------------------------------------------------------
  Total      -1.48634    -0.36855    -0.09357     0.00000     0.00000     0.00000
  in kB      -8.38513    -2.07914    -0.52788     0.00000     0.00000     0.00000
  external pressure =       -3.66 kB  Pullay stress =        0.00 kB


 VOLUME and BASIS-vectors are now :
 -----------------------------------------------------------------------------
  energy-cutoff  :      420.00
  volume of cell :      284.00
      direct lattice vectors                 reciprocal lattice vectors
     7.801052185  0.000000000  0.000000000     0.128187836  0.000000000  0.000000000
     0.000000000  6.138096377  0.000000000     0.000000000  0.162916960  0.000000000
[...]
     17      -2.5324      2.00000
     18      -2.3153      2.00000
     19      -2.2012      2.00000
     20      -2.0332      2.00000
     21      -1.8441      2.00000
     22      -1.7197      2.00000
     23      -0.0584      2.00000
     24       0.0670      2.00000
     25       0.3843      2.00000
     26       0.4801      2.00000
     27       0.5777      2.00000
     28       0.8152      2.00000
     29       1.0622      2.00000
     30       1.2236      2.00000
     31       1.5095      2.00000
     32       1.6993      2.00000
     33       1.8323      2.00000
     34       2.0040      2.00000
     35       2.1787      2.00000
     36       2.2869      2.00000
     37       2.4449      2.00000
     38       2.6384      2.00000
     39       5.6196      0.00000
     40       6.1937      0.00000
     41       6.5828      0.00000
     42       6.6224      0.00000
     43       6.9324      0.00000
     44       7.0629      0.00000
     45       7.2019      0.00000
     46       7.5391      0.00000
     47       8.4920      0.00000
     48       8.6027      0.00000

 k-point     4 :       0.3750    0.3750    0.1250
  band No.  band energies     occupation 
      1     -41.3714      2.00000
      2     -41.3714      2.00000
      3     -40.6915      2.00000
      4     -40.6914      2.00000
      5     -40.6909      2.00000
      6     -40.6908      2.00000
      7     -12.2928      2.00000
      8     -12.2482      2.00000
      9      -9.4560      2.00000
     10      -9.4323      2.00000
     11      -9.2410      2.00000
     12      -9.1519      2.00000
     13      -8.9894      2.00000
     14      -8.9458      2.00000
     15      -5.0377      2.00000
     16      -4.8552      2.00000
     17      -2.4444      2.00000
     18      -2.3512      2.00000
     19      -2.1607      2.00000
     20      -2.1125      2.00000
     21      -1.7832      2.00000
     22      -1.7249      2.00000
     23      -0.0233      2.00000
     24       0.0845      2.00000
     25       0.1878      2.00000
     26       0.3956      2.00000
     27       0.6791      2.00000
     28       0.7727      2.00000
     29       0.9468      2.00000
     30       1.1700      2.00000
     31       1.5648      2.00000
     32       1.6667      2.00000
     33       1.8609      2.00000
     34       2.0031      2.00000
     35       2.1581      2.00000
     36       2.2677      2.00000
     37       2.4901      2.00000
     38       2.6263      2.00000
     39       5.8119      0.00000
     40       6.0693      0.00000
     41       6.6797      0.00000
     42       6.7943      0.00000
     43       7.0570      0.00000
     44       7.1882      0.00000
     45       7.4255      0.00000
     46       7.5487      0.00000
     47       8.6193      0.00000
     48       8.6723      0.00000

 k-point     5 :       0.1250    0.1250    0.3750
  band No.  band energies     occupation 
      1     -41.3714      2.00000
      2     -41.3714      2.00000
      3     -40.6916      2.00000
      4     -40.6915      2.00000
      5     -40.6908      2.00000
      6     -40.6907      2.00000
      7     -12.2875      2.00000
      8     -12.2100      2.00000
      9      -9.4508      2.00000
     10      -9.3594      2.00000
     11      -9.2819      2.00000
     12      -9.1618      2.00000
     13      -9.0636      2.00000
     14      -9.0513      2.00000
     15      -5.1125      2.00000
     16      -4.8409      2.00000
     17      -2.2196      2.00000
     18      -2.1167      2.00000
     19      -2.0487      2.00000
     20      -1.9507      2.00000
     21      -1.8945      2.00000
     22      -1.7562      2.00000
     23       0.0210      2.00000
     24       0.0938      2.00000
     25       0.1671      2.00000
     26       0.3466      2.00000
     27       0.4725      2.00000
     28       0.6433      2.00000
     29       1.1003      2.00000
     30       1.3226      2.00000
     31       1.5516      2.00000
     32       1.6689      2.00000
     33       1.7888      2.00000
     34       1.9427      2.00000
     35       2.0930      2.00000
     36       2.2950      2.00000
     37       2.4845      2.00000
     38       2.6674      2.00000
     39       5.4232      0.00000
     40       5.8124      0.00000
     41       6.4612      0.00000
     42       6.6000      0.00000
     43       7.1391      0.00000
     44       7.2631      0.00000
     45       7.4096      0.00000
     46       7.5308      0.00000
     47       8.3294      0.00000
     48       8.6637      0.00000

 k-point     6 :       0.3750    0.1250    0.3750
  band No.  band energies     occupation 
      1     -41.3715      2.00000
      2     -41.3714      2.00000
      3     -40.6915      2.00000
      4     -40.6914      2.00000
      5     -40.6909      2.00000
      6     -40.6909      2.00000
      7     -12.2636      2.00000
      8     -12.2315      2.00000
      9      -9.4792      2.00000
     10      -9.4366      2.00000
     11      -9.2165      2.00000
     12      -9.1802      2.00000
     13      -9.0395      2.00000
     14      -9.0167      2.00000
     15      -5.0339      2.00000
     16      -4.9210      2.00000
     17      -2.2572      2.00000
     18      -2.2238      2.00000
     19      -2.0055      2.00000
     20      -1.9127      2.00000
     21      -1.7801      2.00000
     22      -1.7384      2.00000
     23       0.0236      2.00000
     24       0.0482      2.00000
     25       0.2960      2.00000
     26       0.4265      2.00000
     27       0.5587      2.00000
     28       0.6769      2.00000
     29       1.1049      2.00000
     30       1.1678      2.00000
     31       1.4771      2.00000
     32       1.5598      2.00000
     33       1.7654      2.00000
     34       1.8100      2.00000
     35       1.9562      2.00000
     36       2.0489      2.00000
     37       2.5769      2.00000
     38       2.6986      2.00000
     39       5.6074      0.00000
     40       5.7817      0.00000
     41       6.6952      0.00000
     42       6.8389      0.00000
     43       7.0803      0.00000
     44       7.1864      0.00000
     45       7.5057      0.00000
     46       7.6600      0.00000
     47       8.4380      0.00000
     48       8.7185      0.00000

 k-point     7 :       0.1250    0.3750    0.3750
  band No.  band energies     occupation 
      1     -41.3715      2.00000
      2     -41.3714      2.00000
      3     -40.6916      2.00000
      4     -40.6915      2.00000
      5     -40.6908      2.00000
      6     -40.6908      2.00000
      7     -12.2477      2.00000
      8     -12.2006      2.00000
      9      -9.4437      2.00000
     10      -9.3990      2.00000
     11      -9.2995      2.00000
     12      -9.2397      2.00000
     13      -9.1208      2.00000
     14      -9.0691      2.00000
     15      -4.9252      2.00000
     16      -4.7334      2.00000
     17      -2.2147      2.00000
     18      -2.1729      2.00000
     19      -2.0728      2.00000
     20      -2.0073      2.00000
     21      -1.7649      2.00000
     22      -1.6179      2.00000
     23      -0.0288      2.00000
     24       0.2192      2.00000
     25       0.2984      2.00000
     26       0.4657      2.00000
     27       0.6267      2.00000
     28       0.7436      2.00000
     29       0.9462      2.00000
     30       1.0406      2.00000
     31       1.1797      2.00000
     32       1.3146      2.00000
     33       1.6830      2.00000
     34       2.0985      2.00000
     35       2.2487      2.00000
     36       2.3514      2.00000
     37       2.4852      2.00000
     38       2.5441      2.00000
     39       5.5716      0.00000
     40       5.9103      0.00000
     41       6.5283      0.00000
     42       6.7804      0.00000
     43       6.8213      0.00000
     44       6.9922      0.00000
     45       7.1330      0.00000
     46       7.2472      0.00000
     47       8.5225      0.00000
     48       8.7006      0.00000

 k-point     8 :       0.3750    0.3750    0.3750
  band No.  band energies     occupation 
      1     -41.3715      2.00000
      2     -41.3714      2.00000
      3     -40.6915      2.00000
      4     -40.6915      2.00000
      5     -40.6909      2.00000
      6     -40.6909      2.00000
      7     -12.2327      2.00000
      8     -12.2132      2.00000
      9      -9.4314      2.00000
     10      -9.4137      2.00000
     11      -9.3031      2.00000
     12      -9.2692      2.00000
     13      -9.0981      2.00000
     14      -9.0715      2.00000
     15      -4.8421      2.00000
     16      -4.7617      2.00000
     17      -2.2176      2.00000
     18      -2.1808      2.00000
     19      -2.0014      2.00000
     20      -1.9166      2.00000
     21      -1.7669      2.00000
     22      -1.6892      2.00000
     23      -0.1041      2.00000
     24       0.0198      2.00000
     25       0.2768      2.00000
     26       0.3663      2.00000
     27       0.5862      2.00000
     28       0.6329      2.00000
     29       1.0354      2.00000
     30       1.1105      2.00000
     31       1.3389      2.00000
     32       1.4053      2.00000
     33       1.6723      2.00000
     34       1.9035      2.00000
     35       2.2501      2.00000
     36       2.2862      2.00000
     37       2.5131      2.00000
     38       2.6074      2.00000
     39       5.7385      0.00000
     40       5.8999      0.00000
     41       6.6606      0.00000
     42       6.6821      0.00000
     43       7.0075      0.00000
     44       7.1391      0.00000
     45       7.3067      0.00000
     46       7.4070      0.00000
     47       8.5589      0.00000
     48       8.7169      0.00000


--------------------------------------------------------------------------------------------------------


 soft charge-density along one line, spin component           1
         0         1         2         3         4         5         6         7         8         9
 total charge-density along one line
 
 pseudopotential strength for first ion, spin component:           1
 29.984  37.411   0.002   0.001  -0.000   0.002   0.002  -0.000
 37.411  46.681   0.002   0.002  -0.000   0.003   0.003  -0.000
  0.002   0.002   6.574  -0.001   0.000  10.180  -0.001   0.000
  0.001   0.002  -0.001   6.574  -0.000  -0.001  10.180  -0.000
 -0.000  -0.000   0.000  -0.000   6.573   0.000  -0.000  10.178
  0.002   0.003  10.180  -0.001   0.000  15.782  -0.002   0.000
  0.002   0.003  -0.001  10.180  -0.000  -0.002  15.782  -0.000
 -0.000  -0.000   0.000  -0.000  10.178   0.000  -0.000  15.779
 total augmentation occupancy for first ion, spin component:           1
 11.129  -6.431   0.107   0.264   0.000  -0.035  -0.119   0.000
 -6.431   4.194  -0.085  -0.208   0.000   0.024   0.087   0.000
  0.107  -0.085   4.341  -0.080   0.000  -1.452   0.040   0.000
  0.264  -0.208  -0.080   4.535   0.000   0.040  -1.536   0.000
  0.000   0.000   0.000   0.000   4.227   0.000   0.000  -1.389
 -0.035   0.024  -1.452   0.040   0.000   0.525  -0.019   0.000
 -0.119   0.087   0.040  -1.536   0.000  -0.019   0.562   0.000
  0.000   0.000   0.000   0.000  -1.389   0.000   0.000   0.497


------------------------ aborting loop because EDIFF is reached ----------------------------------------


    CHARGE:  cpu time    0.0173: real time    0.0173
    FORLOC:  cpu time    0.0007: real time    0.0007
    FORNL :  cpu time    0.0355: real time    0.0355
    STRESS:  cpu time    0.1030: real time    0.1030
    FORCOR:  cpu time    0.0029: real time    0.0029
    FORHAR:  cpu time    0.0025: real time    0.0025
    MIXING:  cpu time    0.0003: real time    0.0003
    OFIELD:  cpu time    0.0000: real time    0.0000

  FORCE on cell =-STRESS in cart. coord.  units (eV):
  Direction    XX          YY          ZZ          XY          YZ          ZX
  --------------------------------------------------------------------------------------
  Alpha Z    69.92308    69.92308    69.92308
  Ewald    -925.64370  -995.72595  -823.53062     0.00000    -0.00000    -0.00000
  Hartree   215.05236   172.53741   264.82287     0.00000     0.00000     0.00000
  E(xc)    -277.17033  -277.09254  -277.14279    -0.00000     0.00000     0.00000
  Local    -642.77117  -527.20743  -786.12537    -0.00000    -0.00000    -0.00000
  n-local   610.93395   609.58896   610.17458    -0.44539     0.04902     0.00246
  augment   -43.57447   -43.25168   -42.71294     0.00000     0.00000    -0.00000
  Kinetic   993.25580   991.21673   984.61961    -0.01800    -0.11423     0.05298
  Fock        0.00000     0.00000     0.00000     0.00000     0.00000     0.00000
  -------------------------------------------------------------------------------------
  Total       0.00551    -0.01142     0.02842     0.00000     0.00000     0.00000
  in kB       0.03131    -0.06481     0.16136     0.00000     0.00000     0.00000
  external pressure =        0.04 kB  Pullay stress =        0.00 kB


 VOLUME and BASIS-vectors are now :
 -----------------------------------------------------------------------------
  energy-cutoff  :      420.00
  volume of cell :      282.21
      direct lattice vectors                 reciprocal lattice vectors
     7.742600977  0.000000000  0.000000000     0.129155565  0.000000000  0.000000000
     0.000000000  6.139911080  0.000000000     0.000000000  0.162868808  0.000000000
     0.000000000  0.000000000  5.936393520     0.000000000  0.000000000  0.168452444

  length of vectors
     7.742600977  6.139911080  5.936393520     0.129155565  0.162868808  0.168452444


 FORCES acting on ions
    electron-ion (+dipol)            ewald-force                    non-local-force                 convergence-correction
 -----------------------------------------------------------------------------------------------
   0.177E-09 -.118E+02 0.174E+02   0.249E-08 0.115E+02 -.174E+02   0.000E+00 0.274E+00 0.606E-02   0.278E-12 0.893E-02 0.844E-02
   -.335E-08 0.118E+02 0.174E+02   -.781E-09 -.115E+02 -.174E+02   0.000E+00 -.274E+00 0.606E-02   0.441E-12 -.893E-02 0.844E-02
   -.685E+02 0.814E+01 -.833E+01   0.696E+02 -.948E+01 0.990E+01   -.110E+01 0.134E+01 -.157E+01   0.475E-02 0.850E-02 0.129E-02
   0.685E+02 -.814E+01 -.833E+01   -.696E+02 0.948E+01 0.990E+01   0.110E+01 -.134E+01 -.157E+01   -.475E-02 -.850E-02 0.129E-02
   -.685E+02 -.814E+01 -.833E+01   0.696E+02 0.948E+01 0.990E+01   -.110E+01 -.134E+01 -.157E+01   0.475E-02 -.850E-02 0.129E-02
   0.685E+02 0.814E+01 -.833E+01   -.696E+02 -.948E+01 0.990E+01   0.110E+01 0.134E+01 -.157E+01   -.475E-02 0.850E-02 0.129E-02
   -.149E-09 -.460E+02 0.496E+02   0.225E-08 0.479E+02 -.519E+02   0.000E+00 -.193E+01 0.233E+01   0.209E-13 0.155E-01 -.351E-02
   -.847E-08 0.460E+02 0.496E+02   -.111E-08 -.479E+02 -.519E+02   0.000E+00 0.193E+01 0.233E+01   0.545E-12 -.155E-01 -.351E-02
   -.874E-10 -.559E+02 -.483E+02   0.199E-08 0.574E+02 0.488E+02   0.000E+00 -.150E+01 -.533E+00   0.116E-12 -.113E-01 0.595E-02
   -.870E-08 0.559E+02 -.483E+02   -.117E-08 -.574E+02 0.488E+02   0.000E+00 0.150E+01 -.533E+00   -.837E-13 0.113E-01 0.595E-02
   0.988E-10 0.279E+02 -.160E+02   0.147E-08 -.271E+02 0.157E+02   0.000E+00 -.875E+00 0.263E+00   -.776E-13 -.406E-02 0.141E-02
   -.551E-08 -.279E+02 -.160E+02   -.522E-09 0.271E+02 0.157E+02   0.000E+00 0.875E+00 0.263E+00   0.249E-12 0.406E-02 0.141E-02
   -.948E+01 -.202E+02 0.825E+01   0.961E+01 0.196E+02 -.750E+01   -.123E+00 0.613E+00 -.749E+00   -.900E-03 0.291E-02 -.370E-05
   0.948E+01 0.202E+02 0.825E+01   -.961E+01 -.196E+02 -.750E+01   0.123E+00 -.613E+00 -.749E+00   0.900E-03 -.291E-02 -.370E-05
   -.948E+01 0.202E+02 0.825E+01   0.961E+01 -.196E+02 -.750E+01   -.123E+00 -.613E+00 -.749E+00   -.900E-03 -.291E-02 -.370E-05
   0.948E+01 -.202E+02 0.825E+01   -.961E+01 0.196E+02 -.750E+01   0.123E+00 0.613E+00 -.749E+00   0.900E-03 0.291E-02 -.370E-05
 -----------------------------------------------------------------------------------------------
   -.809E-07 -.820E-07 0.513E+01   -.409E-13 0.355E-14 0.222E-13   0.000E+00 0.000E+00 -.516E+01   0.112E-11 0.433E-13 0.297E-01
 
 
 POSITION                                       TOTAL-FORCE (eV/Angst)
 -----------------------------------------------------------------------------------
     -0.00000      4.73503      2.61666         0.000000      0.001933      0.018953
      3.87130      1.40489      5.58485         0.000000     -0.001933      0.018953
      1.62179      3.70601      3.31611        -0.013713      0.008692     -0.004906
      2.24951      2.43390      0.34791         0.013713     -0.008692     -0.004906
      5.49309      2.43390      0.34791        -0.013713     -0.008692     -0.004906
      6.12081      3.70601      3.31611         0.013713      0.008692     -0.004906
     -0.00000      4.99114      0.60216         0.000000     -0.005643     -0.011733
      3.87130      1.14877      3.57036         0.000000      0.005643     -0.011733
     -0.00000      0.40498      3.53831         0.000000     -0.015077     -0.016338
      3.87130      5.73493      0.57012         0.000000      0.015077     -0.016338
     -0.00000      2.68174      5.04631         0.000000     -0.005587      0.009874
      3.87130      3.45817      2.07811         0.000000      0.005587      0.009874
      2.07042      4.73433      5.41053         0.005296     -0.001023      0.004528
      1.80088      1.40558      2.44233        -0.005296      0.001023      0.004528
      5.94172      1.40558      2.44233         0.005296      0.001023      0.004528
      5.67219      4.73433      5.41053        -0.005296     -0.001023      0.004528
 -----------------------------------------------------------------------------------
    total drift:                               -0.000000     -0.000000     -0.004080


--------------------------------------------------------------------------------------------------------



  FREE ENERGIE OF THE ION-ELECTRON SYSTEM (eV)
  ---------------------------------------------------
  free  energy   TOTEN  =       -76.87253075 eV

  energy  without entropy=      -76.87253075  energy(sigma->0) =      -76.87253075
 
 d Force = 0.7404919E-04[ 0.267E-04, 0.121E-03]  d Energy = 0.7311483E-04 0.934E-06
 d Force =-0.5200028E-01[-0.525E-01,-0.515E-01]  d Ewald  =-0.5752699E+00 0.523E+00


--------------------------------------------------------------------------------------------------------


    POTLOK:  cpu time    0.0038: real time    0.0038


--------------------------------------------------------------------------------------------------------




--------------------------------------------------------------------------------------------------------


  
 reached required accuracy - stopping structural energy minimisation
     LOOP+:  cpu time    0.7183: real time    0.7241
    4ORBIT:  cpu time    0.0000: real time    0.0000
 BZINTS: Fermi energy:  2.820434; 76.000000 electrons
         Band energy:-653.706838;  BLOECHL correction:  0.000000

 total amount of memory used by VASP MPI-rank0    33596. kBytes
=======================================================================

   base      :      30000. kBytes
   nonlr-proj:       1231. kBytes
   fftplans  :        656. kBytes
   grid      :       1147. kBytes
   one-center:          3. kBytes
   wavefun   :        559. kBytes
 
  
  
 General timing and accounting informations for this job:
 ========================================================
  
                  Total CPU time used (sec):       28.035
                            User time (sec):       27.536
                          System time (sec):        0.500
                         Elapsed time (sec):       29.412
  
                   Maximum memory used (kb):      165360.
                   Average memory used (kb):           0.
  
                          Minor page faults:        42462
                          Major page faults:           74
                 Voluntary context switches:         2687
