<?xml version="1.0" encoding="ISO-8859-1"?>
<modeling>
 <generator>
  <i name="program" type="string">vasp </i>
  <i name="version" type="string">5.4.4.18Apr17-6-g9f103f2a35  </i>
  <i name="subversion" type="string">(build Feb 28 2020 14:15:47) complex            parallel </i>
  <i name="platform" type="string">LinuxIFC </i>
  <i name="date" type="string">2022 08 07 </i>
  <i name="time" type="string">07:22:38 </i>
 </generator>
 <incar>
  <i type="int" name="ISTART">     0</i>
  <i type="string" name="PREC">accurate</i>
  <i type="string" name="ALGO"> FAST</i>
  <i type="int" name="ISPIN">     1</i>
  <i type="int" name="ICHARG">     2</i>
  <i type="int" name="INIWAV">     1</i>
  <i type="int" name="NELM">   100</i>
  <i type="int" name="IBRION">     2</i>
  <i name="EDIFF">      0.00002000</i>
  <i name="EDIFFG">      0.00020000</i>
  <i type="int" name="NSW">   100</i>
  <i type="int" name="ISIF">     3</i>
  <i name="ENCUT">    420.00000000</i>
  <i type="string" name="LREAL"> AUTO</i>
  <i type="int" name="ISMEAR">    -5</i>
  <i type="logical" name="LWAVE"> F  </i>
  <i type="logical" name="LCHARG"> F  </i>
  <v type="int" name="KPOINT_BSE">    -1     0     0     0</v>
  <i type="int" name="NELM">   100</i>
 </incar>
 <structure name="primitive_cell" >
  <crystal>
   <varray name="basis" >
    <v>       7.80105218       0.00000000       0.00000000 </v>
    <v>       0.00000000       6.13809638       0.00000000 </v>
    <v>       0.00000000       0.00000000       5.93106757 </v>
   </varray>
   <i name="volume">    284.00092733 </i>
   <varray name="rec_basis" >
    <v>       0.12818784       0.00000000       0.00000000 </v>
    <v>       0.00000000       0.16291696       0.00000000 </v>
    <v>       0.00000000       0.00000000       0.16860371 </v>
   </varray>
  </crystal>
  <varray name="positions" >
   <v>       0.00000000      -0.22862780       0.43993650 </v>
   <v>       0.00000000       0.06133187      -0.39499343 </v>
   <v>       0.00000000      -0.17650679       0.10162874 </v>
   <v>      -0.20794023      -0.40040862      -0.44984922 </v>
   <v>       0.20794023      -0.40040862      -0.44984922 </v>
   <v>       0.00000000       0.43237490      -0.14608782 </v>
   <v>      -0.23338556       0.23226001       0.41378971 </v>
   <v>       0.23338556       0.23226001       0.41378971 </v>
   <v>      -0.26661444      -0.23226001      -0.08621029 </v>
   <v>       0.26661444      -0.23226001      -0.08621029 </v>
   <v>      -0.29205977       0.40040862       0.05015078 </v>
   <v>       0.29205977       0.40040862       0.05015078 </v>
   <v>      -0.50000000      -0.43237490       0.35391218 </v>
   <v>      -0.50000000      -0.06133187       0.10500657 </v>
   <v>      -0.50000000       0.17650679      -0.39837126 </v>
   <v>      -0.50000000       0.22862780      -0.06006350 </v>
  </varray>
 </structure>
 <varray name="primitive_index" >
  <v type="int" >        1 </v>
  <v type="int" >        9 </v>
  <v type="int" >        7 </v>
  <v type="int" >        6 </v>
  <v type="int" >        3 </v>
  <v type="int" >       11 </v>
  <v type="int" >       15 </v>
  <v type="int" >       14 </v>
  <v type="int" >       16 </v>
  <v type="int" >       13 </v>
  <v type="int" >        5 </v>
  <v type="int" >        4 </v>
  <v type="int" >       12 </v>
  <v type="int" >       10 </v>
  <v type="int" >        8 </v>
  <v type="int" >        2 </v>
 </varray>
 <kpoints>
  <generation param="Monkhorst-Pack">
   <v type="int" name="divisions">       4        4        4 </v>
   <v name="usershift">      0.00000000       0.00000000       0.00000000 </v>
   <v name="genvec1">      0.25000000       0.00000000       0.00000000 </v>
   <v name="genvec2">      0.00000000       0.25000000       0.00000000 </v>
   <v name="genvec3">      0.00000000       0.00000000       0.25000000 </v>
   <v name="shift">      0.50000000       0.50000000       0.50000000 </v>
  </generation>
  <varray name="kpointlist" >
   <v>       0.12500000       0.12500000       0.12500000 </v>
   <v>       0.37500000       0.12500000       0.12500000 </v>
   <v>       0.12500000       0.37500000       0.12500000 </v>
   <v>       0.37500000       0.37500000       0.12500000 </v>
   <v>       0.12500000       0.12500000       0.37500000 </v>
   <v>       0.37500000       0.12500000       0.37500000 </v>
   <v>       0.12500000       0.37500000       0.37500000 </v>
   <v>       0.37500000       0.37500000       0.37500000 </v>
  </varray>
  <varray name="weights" >
   <v>       0.12500000 </v>
   <v>       0.12500000 </v>
   <v>       0.12500000 </v>
   <v>       0.12500000 </v>
   <v>       0.12500000 </v>
   <v>       0.12500000 </v>
   <v>       0.12500000 </v>
   <v>       0.12500000 </v>
  </varray>
  <varray name="tetrahedronlist"  type="int" >
   <v type="int" >        2        1        2        4        5 </v>
   <v type="int" >        2        1        3        4        5 </v>
   <v type="int" >        2        3        4        5        7 </v>
   <v type="int" >        2        2        4        5        6 </v>
   <v type="int" >        2        4        5        6        8 </v>
   <v type="int" >        2        4        5        7        8 </v>
   <v type="int" >        2        2        2        4        6 </v>
   <v type="int" >        2        2        4        4        6 </v>
   <v type="int" >        2        4        4        6        8 </v>
   <v type="int" >        2        2        4        6        6 </v>
   <v type="int" >        2        4        6        6        8 </v>
   <v type="int" >        2        4        6        8        8 </v>
   <v type="int" >        2        1        2        3        6 </v>
   <v type="int" >        2        2        3        4        6 </v>
   <v type="int" >        2        3        4        6        8 </v>
   <v type="int" >        2        1        3        5        6 </v>
   <v type="int" >        2        3        5        6        7 </v>
   <v type="int" >        2        3        6        7        8 </v>
   <v type="int" >        2        1        1        3        5 </v>
   <v type="int" >        2        1        3        3        5 </v>
   <v type="int" >        2        3        3        5        7 </v>
   <v type="int" >        2        1        3        5        5 </v>
   <v type="int" >        2        3        5        5        7 </v>
   <v type="int" >        2        3        5        7        7 </v>
   <v type="int" >        2        3        4        4        7 </v>
   <v type="int" >        2        3        3        4        7 </v>
   <v type="int" >        2        3        4        7        7 </v>
   <v type="int" >        2        4        4        7        8 </v>
   <v type="int" >        2        4        7        8        8 </v>
   <v type="int" >        2        4        7        7        8 </v>
   <v type="int" >        4        4        4        4        8 </v>
   <v type="int" >        4        4        4        8        8 </v>
   <v type="int" >        4        4        8        8        8 </v>
   <v type="int" >        2        3        3        4        8 </v>
   <v type="int" >        2        3        4        4        8 </v>
   <v type="int" >        2        3        4        8        8 </v>
   <v type="int" >        2        3        3        7        8 </v>
   <v type="int" >        2        3        7        7        8 </v>
   <v type="int" >        2        3        7        8        8 </v>
   <v type="int" >        4        3        3        3        7 </v>
   <v type="int" >        4        3        3        7        7 </v>
   <v type="int" >        4        3        7        7        7 </v>
   <v type="int" >        2        2        3        4        7 </v>
   <v type="int" >        2        1        2        3        7 </v>
   <v type="int" >        2        1        2        5        7 </v>
   <v type="int" >        2        2        4        7        8 </v>
   <v type="int" >        2        2        6        7        8 </v>
   <v type="int" >        2        2        5        6        7 </v>
   <v type="int" >        2        2        4        4        8 </v>
   <v type="int" >        2        2        2        4        8 </v>
   <v type="int" >        2        2        2        6        8 </v>
   <v type="int" >        2        2        4        8        8 </v>
   <v type="int" >        2        2        6        8        8 </v>
   <v type="int" >        2        2        6        6        8 </v>
   <v type="int" >        2        1        3        4        8 </v>
   <v type="int" >        2        1        2        4        8 </v>
   <v type="int" >        2        1        2        6        8 </v>
   <v type="int" >        2        1        3        7        8 </v>
   <v type="int" >        2        1        5        7        8 </v>
   <v type="int" >        2        1        5        6        8 </v>
   <v type="int" >        2        1        3        3        7 </v>
   <v type="int" >        2        1        1        3        7 </v>
   <v type="int" >        2        1        1        5        7 </v>
   <v type="int" >        2        1        3        7        7 </v>
   <v type="int" >        2        1        5        7        7 </v>
   <v type="int" >        2        1        5        5        7 </v>
   <v type="int" >        2        1        2        2        5 </v>
   <v type="int" >        2        1        1        2        5 </v>
   <v type="int" >        2        1        2        5        5 </v>
   <v type="int" >        2        2        2        5        6 </v>
   <v type="int" >        2        2        5        6        6 </v>
   <v type="int" >        2        2        5        5        6 </v>
   <v type="int" >        4        2        2        2        6 </v>
   <v type="int" >        4        2        2        6        6 </v>
   <v type="int" >        4        2        6        6        6 </v>
   <v type="int" >        2        1        1        2        6 </v>
   <v type="int" >        2        1        2        2        6 </v>
   <v type="int" >        2        1        2        6        6 </v>
   <v type="int" >        2        1        1        5        6 </v>
   <v type="int" >        2        1        5        5        6 </v>
   <v type="int" >        2        1        5        6        6 </v>
   <v type="int" >        4        1        1        1        5 </v>
   <v type="int" >        4        1        1        5        5 </v>
   <v type="int" >        4        1        5        5        5 </v>
   <v type="int" >        2        5        5        6        8 </v>
   <v type="int" >        2        5        5        7        8 </v>
   <v type="int" >        2        5        7        7        8 </v>
   <v type="int" >        2        5        6        6        8 </v>
   <v type="int" >        2        5        6        8        8 </v>
   <v type="int" >        2        5        7        8        8 </v>
   <v type="int" >        4        6        6        6        8 </v>
   <v type="int" >        4        6        6        8        8 </v>
   <v type="int" >        4        6        8        8        8 </v>
   <v type="int" >        2        5        6        6        7 </v>
   <v type="int" >        2        6        6        7        8 </v>
   <v type="int" >        2        6        7        8        8 </v>
   <v type="int" >        2        5        5        6        7 </v>
   <v type="int" >        2        5        6        7        7 </v>
   <v type="int" >        2        6        7        7        8 </v>
   <v type="int" >        4        5        5        5        7 </v>
   <v type="int" >        4        5        5        7        7 </v>
   <v type="int" >        4        5        7        7        7 </v>
   <v type="int" >        4        7        7        8        8 </v>
   <v type="int" >        4        7        7        7        8 </v>
   <v type="int" >        4        7        8        8        8 </v>
   <v type="int" >        6        8        8        8        8 </v>
   <v type="int" >        6        7        7        7        7 </v>
   <v type="int" >        4        5        5        6        6 </v>
   <v type="int" >        4        5        5        5        6 </v>
   <v type="int" >        4        5        6        6        6 </v>
   <v type="int" >        6        6        6        6        6 </v>
   <v type="int" >        6        5        5        5        5 </v>
   <v type="int" >        2        1        1        2        4 </v>
   <v type="int" >        2        1        1        3        4 </v>
   <v type="int" >        2        1        3        3        4 </v>
   <v type="int" >        2        1        2        2        4 </v>
   <v type="int" >        2        1        2        4        4 </v>
   <v type="int" >        2        1        3        4        4 </v>
   <v type="int" >        4        2        2        2        4 </v>
   <v type="int" >        4        2        2        4        4 </v>
   <v type="int" >        4        2        4        4        4 </v>
   <v type="int" >        2        1        2        2        3 </v>
   <v type="int" >        2        2        2        3        4 </v>
   <v type="int" >        2        2        3        4        4 </v>
   <v type="int" >        2        1        1        2        3 </v>
   <v type="int" >        2        1        2        3        3 </v>
   <v type="int" >        2        2        3        3        4 </v>
   <v type="int" >        4        1        1        1        3 </v>
   <v type="int" >        4        1        1        3        3 </v>
   <v type="int" >        4        1        3        3        3 </v>
   <v type="int" >        4        3        3        4        4 </v>
   <v type="int" >        4        3        3        3        4 </v>
   <v type="int" >        4        3        4        4        4 </v>
   <v type="int" >        6        4        4        4        4 </v>
   <v type="int" >        6        3        3        3        3 </v>
   <v type="int" >        4        1        1        2        2 </v>
   <v type="int" >        4        1        1        1        2 </v>
   <v type="int" >        4        1        2        2        2 </v>
   <v type="int" >        6        2        2        2        2 </v>
   <v type="int" >        6        1        1        1        1 </v>
  </varray>
  <i name="volumeweight">      0.00260417 </i>
 </kpoints>
 <parameters>
  <separator name="general" >
   <i type="string" name="SYSTEM">unknown system</i>
   <i type="logical" name="LCOMPAT"> F  </i>
  </separator>
  <separator name="electronic" >
   <i type="string" name="PREC">accura</i>
   <i name="ENMAX">    420.00000000</i>
   <i name="ENAUG">    628.94500000</i>
   <i name="EDIFF">      0.00002000</i>
   <i type="int" name="IALGO">    68</i>
   <i type="int" name="IWAVPR">    11</i>
   <i type="int" name="NBANDS">    48</i>
   <i name="NELECT">     76.00000000</i>
   <i type="int" name="TURBO">     0</i>
   <i type="int" name="IRESTART">     0</i>
   <i type="int" name="NREBOOT">     0</i>
   <i type="int" name="NMIN">     0</i>
   <i name="EREF">      0.00000000</i>
   <separator name="electronic smearing" >
    <i type="int" name="ISMEAR">    -5</i>
    <i name="SIGMA">      0.20000000</i>
    <i name="KSPACING">      0.50000000</i>
    <i type="logical" name="KGAMMA"> T  </i>
   </separator>
   <separator name="electronic projectors" >
    <i type="logical" name="LREAL"> T  </i>
    <v name="ROPT">     -0.00025000     -0.00025000     -0.00025000</v>
    <i type="int" name="LMAXPAW">  -100</i>
    <i type="int" name="LMAXMIX">     2</i>
    <i type="logical" name="NLSPLINE"> F  </i>
   </separator>
   <separator name="electronic startup" >
    <i type="int" name="ISTART">     0</i>
    <i type="int" name="ICHARG">     2</i>
    <i type="int" name="INIWAV">     1</i>
   </separator>
   <separator name="electronic spin" >
    <i type="int" name="ISPIN">     1</i>
    <i type="logical" name="LNONCOLLINEAR"> F  </i>
    <v name="MAGMOM">      1.00000000      1.00000000      1.00000000      1.00000000      1.00000000      1.00000000      1.00000000      1.00000000      1.00000000      1.00000000      1.00000000      1.00000000      1.00000000      1.00000000      1.00000000      1.00000000</v>
    <i name="NUPDOWN">     -1.00000000</i>
    <i type="logical" name="LSORBIT"> F  </i>
    <v name="SAXIS">      0.00000000      0.00000000      1.00000000</v>
    <i type="logical" name="LSPIRAL"> F  </i>
    <v name="QSPIRAL">      0.00000000      0.00000000      0.00000000</v>
    <i type="logical" name="LZEROZ"> F  </i>
   </separator>
   <separator name="electronic exchange-correlation" >
    <i type="logical" name="LASPH"> F  </i>
    <i type="logical" name="LMETAGGA"> F  </i>
   </separator>
   <separator name="electronic convergence" >
    <i type="int" name="NELM">   100</i>
    <i type="int" name="NELMDL">    -5</i>
    <i type="int" name="NELMIN">     2</i>
    <i name="ENINI">    420.00000000</i>
    <separator name="electronic convergence detail" >
     <i type="logical" name="LDIAG"> T  </i>
     <i type="logical" name="LSUBROT"> F  </i>
     <i name="WEIMIN">      0.00100000</i>
     <i name="EBREAK">      0.00000010</i>
     <i name="DEPER">      0.30000000</i>
     <i type="int" name="NRMM">     4</i>
     <i name="TIME">      0.40000000</i>
    </separator>
   </separator>
   <separator name="electronic mixer" >
    <i name="AMIX">      0.40000000</i>
    <i name="BMIX">      1.00000000</i>
    <i name="AMIN">      0.10000000</i>
    <i name="AMIX_MAG">      1.60000000</i>
    <i name="BMIX_MAG">      1.00000000</i>
    <separator name="electronic mixer details" >
     <i type="int" name="IMIX">     4</i>
     <i type="logical" name="MIXFIRST"> F  </i>
     <i type="int" name="MAXMIX">   -45</i>
     <i name="WC">    100.00000000</i>
     <i type="int" name="INIMIX">     1</i>
     <i type="int" name="MIXPRE">     1</i>
     <i type="int" name="MREMOVE">     5</i>
    </separator>
   </separator>
   <separator name="electronic dipolcorrection" >
    <i type="logical" name="LDIPOL"> F  </i>
    <i type="logical" name="LMONO"> F  </i>
    <i type="int" name="IDIPOL">     0</i>
    <i name="EPSILON">      1.00000000</i>
    <v name="DIPOL">   -100.00000000   -100.00000000   -100.00000000</v>
    <i name="EFIELD">      0.00000000</i>
   </separator>
  </separator>
  <separator name="grids" >
   <i type="int" name="NGX">    54</i>
   <i type="int" name="NGY">    42</i>
   <i type="int" name="NGZ">    40</i>
   <i type="int" name="NGXF">   108</i>
   <i type="int" name="NGYF">    84</i>
   <i type="int" name="NGZF">    80</i>
   <i type="logical" name="ADDGRID"> F  </i>
  </separator>
  <separator name="ionic" >
   <i type="int" name="NSW">   100</i>
   <i type="int" name="IBRION">     2</i>
   <i type="int" name="MDALGO">     0</i>
   <i type="int" name="ISIF">     3</i>
   <i name="PSTRESS">      0.00000000</i>
   <i name="EDIFFG">      0.00020000</i>
   <i type="int" name="NFREE">     1</i>
   <i name="POTIM">      0.50000000</i>
   <i name="SMASS">     -3.00000000</i>
   <i name="SCALEE">      1.00000000</i>
  </separator>
  <separator name="ionic md" >
   <i name="TEBEG">      0.00010000</i>
   <i name="TEEND">      0.00010000</i>
   <i type="int" name="NBLOCK">     1</i>
   <i type="int" name="KBLOCK">   100</i>
   <i type="int" name="NPACO">   256</i>
   <i name="APACO">     16.00000000</i>
  </separator>
  <separator name="symmetry" >
   <i type="int" name="ISYM">     2</i>
   <i name="SYMPREC">      0.00001000</i>
  </separator>
  <separator name="dos" >
   <i type="int" name="LORBIT">     0</i>
   <v name="RWIGS">     -1.00000000     -1.00000000     -1.00000000</v>
   <i type="int" name="NEDOS">   301</i>
   <i name="EMIN">     10.00000000</i>
   <i name="EMAX">    -10.00000000</i>
   <i name="EFERMI">      0.00000000</i>
  </separator>
  <separator name="writing" >
   <i type="int" name="NWRITE">     2</i>
   <i type="logical" name="LWAVE"> F  </i>
   <i type="logical" name="LDOWNSAMPLE"> F  </i>
   <i type="logical" name="LCHARG"> F  </i>
   <i type="logical" name="LPARD"> F  </i>
   <i type="logical" name="LVTOT"> F  </i>
   <i type="logical" name="LVHAR"> F  </i>
   <i type="logical" name="LELF"> F  </i>
   <i type="logical" name="LOPTICS"> F  </i>
   <v name="STM">      0.00000000      0.00000000      0.00000000      0.00000000      0.00000000      0.00000000      0.00000000</v>
  </separator>
  <separator name="performance" >
   <i type="int" name="NPAR">     4</i>
   <i type="int" name="NSIM">     4</i>
   <i type="int" name="NBLK">    -1</i>
   <i type="logical" name="LPLANE"> T  </i>
   <i type="logical" name="LSCALAPACK"> T  </i>
   <i type="logical" name="LSCAAWARE"> F  </i>
   <i type="logical" name="LSCALU"> F  </i>
   <i type="logical" name="LASYNC"> F  </i>
   <i type="logical" name="LORBITALREAL"> F  </i>
  </separator>
  <separator name="miscellaneous" >
   <i type="int" name="IDIOT">     3</i>
   <i type="int" name="ISPECIAL">     0</i>
   <i type="logical" name="LMUSIC"> F  </i>
   <v name="POMASS">     30.97400000     32.06600000      7.01000000</v>
   <v name="DARWINR">      0.00000000      0.00000000      0.00000000</v>
   <v name="DARWINV">      1.00000000      1.00000000      1.00000000</v>
   <i type="logical" name="LCORR"> T  </i>
  </separator>
  <i type="logical" name="GGA_COMPAT"> T  </i>
  <i type="logical" name="LBERRY"> F  </i>
  <i type="int" name="ICORELEVEL">     0</i>
  <i type="logical" name="LDAU"> F  </i>
  <i type="int" name="I_CONSTRAINED_M">     0</i>
  <separator name="electronic exchange-correlation" >
   <i type="string" name="GGA">--</i>
   <i type="int" name="VOSKOWN">     0</i>
   <i type="logical" name="LHFCALC"> F  </i>
   <i type="string" name="PRECFOCK"></i>
   <i type="logical" name="LSYMGRAD"> F  </i>
   <i type="logical" name="LHFONE"> F  </i>
   <i type="logical" name="LRHFCALC"> F  </i>
   <i type="logical" name="LTHOMAS"> F  </i>
   <i type="logical" name="LMODELHF"> F  </i>
   <i name="ENCUT4O">     -1.00000000</i>
   <i type="int" name="EXXOEP">     0</i>
   <i type="int" name="FOURORBIT">     0</i>
   <i name="AEXX">      0.00000000</i>
   <i name="HFALPHA">      0.00000000</i>
   <i name="MCALPHA">      0.00000000</i>
   <i name="ALDAX">      1.00000000</i>
   <i name="AGGAX">      1.00000000</i>
   <i name="ALDAC">      1.00000000</i>
   <i name="AGGAC">      1.00000000</i>
   <i type="int" name="NKREDX">     1</i>
   <i type="int" name="NKREDY">     1</i>
   <i type="int" name="NKREDZ">     1</i>
   <i type="logical" name="SHIFTRED"> F  </i>
   <i type="logical" name="ODDONLY"> F  </i>
   <i type="logical" name="EVENONLY"> F  </i>
   <i type="int" name="LMAXFOCK">     0</i>
   <i type="int" name="NMAXFOCKAE">     0</i>
   <i type="logical" name="LFOCKAEDFT"> F  </i>
   <i name="HFSCREEN">      0.00000000</i>
   <i name="HFSCREENC">      0.00000000</i>
   <i type="int" name="NBANDSGWLOW">     0</i>
  </separator>
  <separator name="vdW DFT" >
   <i type="logical" name="LUSE_VDW"> F  </i>
   <i name="Zab_VDW">     -0.84910000</i>
   <i name="PARAM1">      0.12340000</i>
   <i name="PARAM2">      1.00000000</i>
   <i name="PARAM3">      0.00000000</i>
  </separator>
  <separator name="model GW" >
   <i type="int" name="MODEL_GW">     0</i>
   <i name="MODEL_EPS0">     10.65003477</i>
   <i name="MODEL_ALPHA">      1.00000000</i>
  </separator>
  <separator name="linear response parameters" >
   <i type="logical" name="LEPSILON"> F  </i>
   <i type="logical" name="LRPA"> F  </i>
   <i type="logical" name="LNABLA"> F  </i>
   <i type="logical" name="LVEL"> F  </i>
   <i type="int" name="KINTER">     0</i>
   <i name="CSHIFT">      0.10000000</i>
   <i name="OMEGAMAX">     -1.00000000</i>
   <i name="DEG_THRESHOLD">      0.00200000</i>
   <i name="RTIME">     -0.10000000</i>
   <i name="WPLASMAI">      0.00000000</i>
   <v name="DFIELD">      0.00000000      0.00000000      0.00000000</v>
   <v name="WPLASMA">      0.00000000      0.00000000      0.00000000      0.00000000      0.00000000      0.00000000      0.00000000      0.00000000      0.00000000</v>
  </separator>
  <separator name="orbital magnetization" >
   <i type="logical" name="NUCIND"> F  </i>
   <v name="MAGPOS">      0.00000000      0.00000000      0.00000000</v>
   <i type="logical" name="LNICSALL"> T  </i>
   <i type="logical" name="ORBITALMAG"> F  </i>
   <i type="logical" name="LMAGBLOCH"> F  </i>
   <i type="logical" name="LCHIMAG"> F  </i>
   <i type="logical" name="LGAUGE"> T  </i>
   <i type="int" name="MAGATOM">     0</i>
   <v name="MAGDIPOL">      0.00000000      0.00000000      0.00000000</v>
   <v name="AVECCONST">      0.00000000      0.00000000      0.00000000</v>
  </separator>
  <separator name="response functions" >
   <i type="logical" name="LADDER"> F  </i>
   <i type="logical" name="LRPAFORCE"> F  </i>
   <i type="logical" name="LFXC"> F  </i>
   <i type="logical" name="LHARTREE"> T  </i>
   <i type="int" name="IBSE">     0</i>
   <v type="int" name="KPOINT">    -1     0     0     0</v>
   <i type="logical" name="LTCTE"> F  </i>
   <i type="logical" name="LTETE"> F  </i>
   <i type="logical" name="LTRIPLET"> F  </i>
   <i type="logical" name="LFXCEPS"> F  </i>
   <i type="logical" name="LFXHEG"> F  </i>
   <i type="int" name="NATURALO">     2</i>
   <i type="logical" name="L2ORDER"> F  </i>
   <i type="logical" name="LMP2LT"> F  </i>
   <i type="logical" name="LUSEW"> F  </i>
   <i name="ENCUTGW">     -2.00000000</i>
   <i name="ENCUTGWSOFT">     -2.00000000</i>
   <i name="ENCUTLF">     -1.00000000</i>
   <i type="int" name="LMAXMP2">    -1</i>
   <i name="SCISSOR">      0.00000000</i>
   <i type="int" name="NOMEGA">     0</i>
   <i type="int" name="NOMEGAR">     0</i>
   <i type="int" name="NBANDSGW">    -1</i>
   <i type="int" name="NBANDSO">    -1</i>
   <i type="int" name="NBANDSV">    -1</i>
   <i type="int" name="NELM">   100</i>
   <i type="int" name="NELMHF">     1</i>
   <i type="int" name="DIM">     3</i>
   <i type="int" name="ANTIRES">     0</i>
   <i name="OMEGAMAX">    -30.00000000</i>
   <i name="OMEGAMIN">    -30.00000000</i>
   <i name="OMEGATL">   -200.00000000</i>
   <i type="int" name="OMEGAGRID">   140</i>
   <i name="CSHIFT">     -0.10000000</i>
   <i type="logical" name="SELFENERGY"> F  </i>
   <i type="logical" name="LSPECTRAL"> F  </i>
   <i type="logical" name="LSPECTRALGW"> F  </i>
   <i type="logical" name="LSINGLES"> F  </i>
   <i type="logical" name="LFERMIGW"> F  </i>
   <i type="logical" name="ODDONLYGW"> F  </i>
   <i type="logical" name="EVENONLYGW"> F  </i>
   <i type="int" name="NKREDLFX">     1</i>
   <i type="int" name="NKREDLFY">     1</i>
   <i type="int" name="NKREDLFZ">     1</i>
   <i type="int" name="MAXMEM">  2800</i>
   <i type="int" name="TELESCOPE">     0</i>
   <i type="int" name="TAUPAR">     1</i>
   <i type="int" name="OMEGAPAR">    -1</i>
   <i name="LAMBDA">      1.00000000</i>
  </separator>
  <separator name="External order field" >
   <i name="OFIELD_KAPPA">      0.00000000</i>
   <v name="OFIELD_K">      0.00000000      0.00000000      0.00000000</v>
   <i name="OFIELD_Q6_NEAR">      0.00000000</i>
   <i name="OFIELD_Q6_FAR">      0.00000000</i>
   <i name="OFIELD_A">      0.00000000</i>
  </separator>
 </parameters>
 <atominfo>
  <atoms>      16 </atoms>
  <types>       3 </types>
  <array name="atoms" >
   <dimension dim="1">ion</dimension>
   <field type="string">element</field>
   <field type="int">atomtype</field>
   <set>
    <rc><c>P </c><c>   1</c></rc>
    <rc><c>P </c><c>   1</c></rc>
    <rc><c>S </c><c>   2</c></rc>
    <rc><c>S </c><c>   2</c></rc>
    <rc><c>S </c><c>   2</c></rc>
    <rc><c>S </c><c>   2</c></rc>
    <rc><c>S </c><c>   2</c></rc>
    <rc><c>S </c><c>   2</c></rc>
    <rc><c>S </c><c>   2</c></rc>
    <rc><c>S </c><c>   2</c></rc>
    <rc><c>Li</c><c>   3</c></rc>
    <rc><c>Li</c><c>   3</c></rc>
    <rc><c>Li</c><c>   3</c></rc>
    <rc><c>Li</c><c>   3</c></rc>
    <rc><c>Li</c><c>   3</c></rc>
    <rc><c>Li</c><c>   3</c></rc>
   </set>
  </array>
  <array name="atomtypes" >
   <dimension dim="1">type</dimension>
   <field type="int">atomspertype</field>
   <field type="string">element</field>
   <field>mass</field>
   <field>valence</field>
   <field type="string">pseudopotential</field>
   <set>
    <rc><c>   2</c><c>P </c><c>     30.97400000</c><c>      5.00000000</c><c>  PAW P 26Mar2009                       </c></rc>
    <rc><c>   8</c><c>S </c><c>     32.06600000</c><c>      6.00000000</c><c>  PAW S 27Mar2009                       </c></rc>
    <rc><c>   6</c><c>Li</c><c>      7.01000000</c><c>      3.00000000</c><c>  PAW Li_sv 10Sep2004                   </c></rc>
   </set>
  </array>
 </atominfo>
 <structure name="initialpos" >
  <crystal>
   <varray name="basis" >
    <v>       7.80105218       0.00000000       0.00000000 </v>
    <v>       0.00000000       6.13809638       0.00000000 </v>
    <v>       0.00000000       0.00000000       5.93106757 </v>
   </varray>
   <i name="volume">    284.00092733 </i>
   <varray name="rec_basis" >
    <v>       0.12818784       0.00000000       0.00000000 </v>
    <v>       0.00000000       0.16291696       0.00000000 </v>
    <v>       0.00000000       0.00000000       0.16860371 </v>
   </varray>
  </crystal>
  <varray name="positions" >
   <v>       0.00000000       0.77137220       0.43993650 </v>
   <v>       0.50000000       0.22862780       0.93993650 </v>
   <v>       0.20794023       0.59959138       0.55015078 </v>
   <v>       0.29205977       0.40040862       0.05015078 </v>
   <v>       0.70794023       0.40040862       0.05015078 </v>
   <v>       0.79205977       0.59959138       0.55015078 </v>
   <v>       0.00000000       0.82349321       0.10162874 </v>
   <v>       0.50000000       0.17650679       0.60162874 </v>
   <v>       0.00000000       0.06133187       0.60500657 </v>
   <v>       0.50000000       0.93866813       0.10500657 </v>
   <v>       0.00000000       0.43237490       0.85391218 </v>
   <v>       0.50000000       0.56762510       0.35391218 </v>
   <v>       0.26661444       0.76773999       0.91378971 </v>
   <v>       0.23338556       0.23226001       0.41378971 </v>
   <v>       0.76661444       0.23226001       0.41378971 </v>
   <v>       0.73338556       0.76773999       0.91378971 </v>
  </varray>
 </structure>
 <calculation>
  <scstep>
   <time name="dav">    0.20    0.21</time>
   <time name="total">    0.22    0.23</time>
   <energy>
    <i name="alphaZ">     69.48202035 </i>
    <i name="ewald">  -2742.48519896 </i>
    <i name="hartreedc">   -623.66033883 </i>
    <i name="XCdc">    182.04906479 </i>
    <i name="pawpsdc">   2494.22442938 </i>
    <i name="pawaedc">  -2541.12215007 </i>
    <i name="eentropy">      0.00000000 </i>
    <i name="bandstr">   -106.17850028 </i>
    <i name="atom">   3769.08782378 </i>
    <i name="e_fr_energy">    501.39715016 </i>
    <i name="e_wo_entrp">    501.39715016 </i>
    <i name="e_0_energy">    501.39715016 </i>
   </energy>
  </scstep>
  <scstep>
   <time name="dav">    0.19    0.19</time>
   <time name="total">    0.19    0.19</time>
   <energy>
    <i name="e_fr_energy">    -11.21316354 </i>
    <i name="e_wo_entrp">    -11.21316354 </i>
    <i name="e_0_energy">    -11.21316354 </i>
   </energy>
  </scstep>
  <scstep>
   <time name="dav">    0.22    0.22</time>
   <time name="total">    0.22    0.22</time>
   <energy>
    <i name="e_fr_energy">    -72.03249411 </i>
    <i name="e_wo_entrp">    -72.03249411 </i>
    <i name="e_0_energy">    -72.03249411 </i>
   </energy>
  </scstep>
  <scstep>
   <time name="dav">    0.27    0.27</time>
   <time name="total">    0.28    0.28</time>
   <energy>
    <i name="e_fr_energy">    -78.55260602 </i>
    <i name="e_wo_entrp">    -78.55260602 </i>
    <i name="e_0_energy">    -78.55260602 </i>
   </energy>
  </scstep>
  <scstep>
   <time name="dav">    0.23    0.23</time>
   <time name="total">    0.25    0.25</time>
   <energy>
    <i name="e_fr_energy">    -79.36895692 </i>
    <i name="e_wo_entrp">    -79.36895692 </i>
    <i name="e_0_energy">    -79.36895692 </i>
   </energy>
  </scstep>
  <scstep>
   <time name="diag">    0.05    0.05</time>
   <time name="diis">    0.09    0.09</time>
   <time name="orth">    0.01    0.01</time>
   <time name="total">    0.17    0.17</time>
   <energy>
    <i name="e_fr_energy">    -77.30988481 </i>
    <i name="e_wo_entrp">    -77.30988481 </i>
    <i name="e_0_energy">    -77.30988481 </i>
   </energy>
  </scstep>
  <scstep>
   <time name="diag">    0.05    0.05</time>
   <time name="diis">    0.09    0.09</time>
   <time name="orth">    0.01    0.01</time>
   <time name="total">    0.17    0.17</time>
   <energy>
    <i name="e_fr_energy">    -76.88838640 </i>
    <i name="e_wo_entrp">    -76.88838640 </i>
    <i name="e_0_energy">    -76.88838640 </i>
   </energy>
  </scstep>
  <scstep>
   <time name="diag">    0.05    0.05</time>
   <time name="diis">    0.11    0.11</time>
   <time name="orth">    0.01    0.01</time>
   <time name="total">    0.19    0.19</time>
   <energy>
    <i name="e_fr_energy">    -76.81442872 </i>
    <i name="e_wo_entrp">    -76.81442872 </i>
    <i name="e_0_energy">    -76.81442872 </i>
   </energy>
  </scstep>
  <scstep>
   <time name="diag">    0.05    0.05</time>
   <time name="diis">    0.10    0.10</time>
   <time name="orth">    0.01    0.01</time>
   <time name="total">    0.19    0.19</time>
   <energy>
    <i name="e_fr_energy">    -76.80837267 </i>
    <i name="e_wo_entrp">    -76.80837267 </i>
    <i name="e_0_energy">    -76.80837267 </i>
   </energy>
  </scstep>
  <scstep>
   <time name="diag">    0.05    0.05</time>
   <time name="diis">    0.13    0.13</time>
   <time name="orth">    0.01    0.01</time>
   <time name="total">    0.21    0.21</time>
   <energy>
    <i name="e_fr_energy">    -76.80867781 </i>
    <i name="e_wo_entrp">    -76.80867781 </i>
    <i name="e_0_energy">    -76.80867781 </i>
   </energy>
  </scstep>
  <scstep>
   <time name="diag">    0.05    0.05</time>
   <time name="diis">    0.12    0.12</time>
   <time name="orth">    0.01    0.01</time>
   <time name="total">    0.21    0.21</time>
   <energy>
    <i name="e_fr_energy">    -76.80907438 </i>
    <i name="e_wo_entrp">    -76.80907438 </i>
    <i name="e_0_energy">    -76.80907438 </i>
   </energy>
  </scstep>
  <scstep>
   <time name="diag">    0.05    0.05</time>
   <time name="diis">    0.12    0.12</time>
   <time name="orth">    0.01    0.01</time>
   <time name="total">    0.20    0.20</time>
   <energy>
    <i name="e_fr_energy">    -76.80923415 </i>
    <i name="e_wo_entrp">    -76.80923415 </i>
    <i name="e_0_energy">    -76.80923415 </i>
   </energy>
  </scstep>
  <scstep>
   <time name="diag">    0.05    0.05</time>
   <time name="diis">    0.08    0.09</time>
   <time name="orth">    0.01    0.01</time>
   <time name="total">    0.17    0.17</time>
   <energy>
    <i name="e_fr_energy">    -76.80932885 </i>
    <i name="e_wo_entrp">    -76.80932885 </i>
    <i name="e_0_energy">    -76.80932885 </i>
   </energy>
  </scstep>
  <scstep>
   <time name="diag">    0.05    0.05</time>
   <time name="diis">    0.10    0.10</time>
   <time name="orth">    0.01    0.01</time>
   <time name="total">    0.18    0.18</time>
   <energy>
    <i name="e_fr_energy">    -76.80937361 </i>
    <i name="e_wo_entrp">    -76.80937361 </i>
    <i name="e_0_energy">    -76.80937361 </i>
   </energy>
  </scstep>
  <scstep>
   <time name="diag">    0.05    0.05</time>
   <time name="diis">    0.08    0.08</time>
   <time name="orth">    0.01    0.01</time>
   <time name="total">    0.16    0.16</time>
   <energy>
    <i name="e_fr_energy">    -76.80940025 </i>
    <i name="e_wo_entrp">    -76.80940025 </i>
    <i name="e_0_energy">    -76.80940025 </i>
   </energy>
  </scstep>
  <scstep>
   <time name="diag">    0.05    0.05</time>
   <time name="diis">    0.07    0.07</time>
   <time name="orth">    0.01    0.01</time>
   <time name="total">    0.13    0.13</time>
   <energy>
    <i name="alphaZ">     69.48202035 </i>
    <i name="ewald">  -2742.48519896 </i>
    <i name="hartreedc">   -651.36174605 </i>
    <i name="XCdc">    185.21372049 </i>
    <i name="pawpsdc">   7403.54143319 </i>
    <i name="pawaedc">  -7454.05288286 </i>
    <i name="eentropy">      0.00000000 </i>
    <i name="bandstr">   -656.23458165 </i>
    <i name="atom">   3769.08782378 </i>
    <i name="e_fr_energy">    -76.80941170 </i>
    <i name="e_wo_entrp">    -76.80941170 </i>
    <i name="e_0_energy">    -76.80941170 </i>
   </energy>
  </scstep>
  <structure>
   <crystal>
    <varray name="basis" >
     <v>       7.80105218       0.00000000       0.00000000 </v>
     <v>       0.00000000       6.13809638       0.00000000 </v>
     <v>       0.00000000       0.00000000       5.93106757 </v>
    </varray>
    <i name="volume">    284.00092733 </i>
    <varray name="rec_basis" >
     <v>       0.12818784       0.00000000       0.00000000 </v>
     <v>       0.00000000       0.16291696       0.00000000 </v>
     <v>       0.00000000       0.00000000       0.16860371 </v>
    </varray>
   </crystal>
   <varray name="positions" >
    <v>       0.00000000       0.77137220       0.43993650 </v>
    <v>       0.50000000       0.22862780       0.93993650 </v>
    <v>       0.20794023       0.59959138       0.55015078 </v>
    <v>       0.29205977       0.40040862       0.05015078 </v>
    <v>       0.70794023       0.40040862       0.05015078 </v>
    <v>       0.79205977       0.59959138       0.55015078 </v>
    <v>       0.00000000       0.82349321       0.10162874 </v>
    <v>       0.50000000       0.17650679       0.60162874 </v>
    <v>       0.00000000       0.06133187       0.60500657 </v>
    <v>       0.50000000       0.93866813       0.10500657 </v>
    <v>       0.00000000       0.43237490       0.85391218 </v>
    <v>       0.50000000       0.56762510       0.35391218 </v>
    <v>       0.26661444       0.76773999       0.91378971 </v>
    <v>       0.23338556       0.23226001       0.41378971 </v>
    <v>       0.76661444       0.23226001       0.41378971 </v>
    <v>       0.73338556       0.76773999       0.91378971 </v>
   </varray>
  </structure>
  <varray name="forces" >
   <v>       0.00000000      -0.02442741      -0.04826302 </v>
   <v>       0.00000000       0.02442741      -0.04826302 </v>
   <v>      -0.00566320       0.16347313       0.26341183 </v>
   <v>       0.00566320      -0.16347313       0.26341183 </v>
   <v>      -0.00566320      -0.16347313       0.26341183 </v>
   <v>       0.00566320       0.16347313       0.26341183 </v>
   <v>       0.00000000      -0.03802756      -0.09208997 </v>
   <v>       0.00000000       0.03802756      -0.09208997 </v>
   <v>       0.00000000       0.01679667      -0.17503675 </v>
   <v>       0.00000000      -0.01679667      -0.17503675 </v>
   <v>       0.00000000       0.03422403      -0.06377585 </v>
   <v>       0.00000000      -0.03422403      -0.06377585 </v>
   <v>       0.06606494       0.10350955      -0.07382903 </v>
   <v>      -0.06606494      -0.10350955      -0.07382903 </v>
   <v>       0.06606494      -0.10350955      -0.07382903 </v>
   <v>      -0.06606494       0.10350955      -0.07382903 </v>
  </varray>
  <varray name="stress" >
   <v>      -8.38512659       0.00000000       0.00000000 </v>
   <v>       0.00000000      -2.07914230       0.00000000 </v>
   <v>       0.00000000       0.00000000      -0.52788374 </v>
  </varray>
  <energy>
   <i name="e_fr_energy">    -76.80941170 </i>
   <i name="e_wo_entrp">    -76.80941170 </i>
   <i name="e_0_energy">      0.00000000 </i>
  </energy>
  <time name="totalsc">    3.31    3.33</time>
 </calculation>
 <calculation>
  <scstep>
   <time name="dav">    0.20    0.20</time>
   <time name="total">    0.22    0.22</time>
   <energy>
    <i name="alphaZ">     69.89217414 </i>
    <i name="ewald">  -2748.28226427 </i>
    <i name="hartreedc">   -652.33445967 </i>
    <i name="XCdc">    185.61725696 </i>
    <i name="pawpsdc">   7403.54101791 </i>
    <i name="pawaedc">  -7454.05247395 </i>
    <i name="eentropy">      0.00000000 </i>
    <i name="bandstr">   -650.30719388 </i>
    <i name="atom">   3769.08782378 </i>
    <i name="e_fr_energy">    -76.83811897 </i>
    <i name="e_wo_entrp">    -76.83811897 </i>
    <i name="e_0_energy">    -76.83811897 </i>
   </energy>
  </scstep>
  <scstep>
   <time name="diag">    0.05    0.05</time>
   <time name="diis">    0.10    0.10</time>
   <time name="orth">    0.01    0.01</time>
   <time name="total">    0.18    0.18</time>
   <energy>
    <i name="e_fr_energy">    -76.83971605 </i>
    <i name="e_wo_entrp">    -76.83971605 </i>
    <i name="e_0_energy">    -76.83971605 </i>
   </energy>
  </scstep>
  <scstep>
   <time name="diag">    0.05    0.05</time>
   <time name="diis">    0.12    0.12</time>
   <time name="orth">    0.01    0.01</time>
   <time name="total">    0.20    0.20</time>
   <energy>
    <i name="e_fr_energy">    -76.83666211 </i>
    <i name="e_wo_entrp">    -76.83666211 </i>
    <i name="e_0_energy">    -76.83666211 </i>
   </energy>
  </scstep>
  <scstep>
   <time name="diag">    0.05    0.05</time>
   <time name="diis">    0.11    0.11</time>
   <time name="orth">    0.01    0.01</time>
   <time name="total">    0.19    0.19</time>
   <energy>
    <i name="e_fr_energy">    -76.83594512 </i>
    <i name="e_wo_entrp">    -76.83594512 </i>
    <i name="e_0_energy">    -76.83594512 </i>
   </energy>
  </scstep>
  <scstep>
   <time name="diag">    0.05    0.05</time>
   <time name="diis">    0.12    0.12</time>
   <time name="orth">    0.01    0.01</time>
   <time name="total">    0.20    0.20</time>
   <energy>
    <i name="e_fr_energy">    -76.83598982 </i>
    <i name="e_wo_entrp">    -76.83598982 </i>
    <i name="e_0_energy">    -76.83598982 </i>
   </energy>
  </scstep>
  <scstep>
   <time name="diag">    0.05    0.05</time>
   <time name="diis">    0.11    0.11</time>
   <time name="orth">    0.01    0.01</time>
   <time name="total">    0.19    0.19</time>
   <energy>
    <i name="e_fr_energy">    -76.83602008 </i>
    <i name="e_wo_entrp">    -76.83602008 </i>
    <i name="e_0_energy">    -76.83602008 </i>
   </energy>
  </scstep>
  <scstep>
   <time name="diag">    0.05    0.05</time>
   <time name="diis">    0.10    0.10</time>
   <time name="orth">    0.01    0.01</time>
   <time name="total">    0.19    0.19</time>
   <energy>
    <i name="e_fr_energy">    -76.83602891 </i>
    <i name="e_wo_entrp">    -76.83602891 </i>
    <i name="e_0_energy">    -76.83602891 </i>
   </energy>
  </scstep>
  <scstep>
   <time name="diag">    0.06    0.06</time>
   <time name="diis">    0.05    0.05</time>
   <time name="orth">    0.01    0.01</time>
   <time name="total">    0.12    0.12</time>
   <energy>
    <i name="alphaZ">     69.89217414 </i>
    <i name="ewald">  -2748.28226427 </i>
    <i name="hartreedc">   -649.05296604 </i>
    <i name="XCdc">    185.37504573 </i>
    <i name="pawpsdc">   7465.69024916 </i>
    <i name="pawaedc">  -7516.16616626 </i>
    <i name="eentropy">      0.00000000 </i>
    <i name="bandstr">   -653.37992113 </i>
    <i name="atom">   3769.08782378 </i>
    <i name="e_fr_energy">    -76.83602489 </i>
    <i name="e_wo_entrp">    -76.83602489 </i>
    <i name="e_0_energy">    -76.83602489 </i>
   </energy>
  </scstep>
  <structure>
   <crystal>
    <varray name="basis" >
     <v>       7.76609124       0.00000000       0.00000000 </v>
     <v>       0.00000000       6.13127553       0.00000000 </v>
     <v>       0.00000000       0.00000000       5.92939420 </v>
    </varray>
    <i name="volume">    282.33430215 </i>
    <varray name="rec_basis" >
     <v>       0.12876490       0.00000000       0.00000000 </v>
     <v>       0.00000000       0.16309820       0.00000000 </v>
     <v>       0.00000000       0.00000000       0.16865129 </v>
    </varray>
   </crystal>
   <varray name="positions" >
    <v>       0.00000000       0.77118021       0.43954393 </v>
    <v>       0.50000000       0.22881979       0.93954393 </v>
    <v>       0.20790521       0.60087620       0.55229335 </v>
    <v>       0.29209479       0.39912380       0.05229335 </v>
    <v>       0.70790521       0.39912380       0.05229335 </v>
    <v>       0.79209479       0.60087620       0.55229335 </v>
    <v>       0.00000000       0.82319433       0.10087969 </v>
    <v>       0.50000000       0.17680567       0.60087969 </v>
    <v>       0.00000000       0.06146388       0.60358284 </v>
    <v>       0.50000000       0.93853612       0.10358284 </v>
    <v>       0.00000000       0.43264389       0.85339344 </v>
    <v>       0.50000000       0.56735611       0.35339344 </v>
    <v>       0.26702299       0.76855353       0.91318920 </v>
    <v>       0.23297701       0.23144647       0.41318920 </v>
    <v>       0.76702299       0.23144647       0.41318920 </v>
    <v>       0.73297701       0.76855353       0.91318920 </v>
   </varray>
  </structure>
  <varray name="forces" >
   <v>       0.00000000       0.06482751      -0.09445394 </v>
   <v>       0.00000000      -0.06482751      -0.09445394 </v>
   <v>       0.11400455       0.04267875       0.20187908 </v>
   <v>      -0.11400455      -0.04267875       0.20187908 </v>
   <v>       0.11400455      -0.04267875       0.20187908 </v>
   <v>      -0.11400455       0.04267875       0.20187908 </v>
   <v>       0.00000000      -0.05148558      -0.03385927 </v>
   <v>       0.00000000       0.05148558      -0.03385927 </v>
   <v>       0.00000000       0.09260802      -0.11685745 </v>
   <v>       0.00000000      -0.09260802      -0.11685745 </v>
   <v>       0.00000000       0.03161386      -0.04926816 </v>
   <v>       0.00000000      -0.03161386      -0.04926816 </v>
   <v>       0.05649564       0.07792346      -0.05465967 </v>
   <v>      -0.05649564      -0.07792346      -0.05465967 </v>
   <v>       0.05649564      -0.07792346      -0.05465967 </v>
   <v>      -0.05649564       0.07792346      -0.05465967 </v>
  </varray>
  <varray name="stress" >
   <v>      -1.24772644       0.00000000       0.00000000 </v>
   <v>       0.00000000       1.84239952       0.00000000 </v>
   <v>       0.00000000       0.00000000      -0.03270985 </v>
  </varray>
  <energy>
   <i name="e_fr_energy">    -76.83602489 </i>
   <i name="e_wo_entrp">    -76.83602489 </i>
   <i name="e_0_energy">      0.00000000 </i>
  </energy>
  <time name="totalsc">    1.69    1.70</time>
 </calculation>
 <calculation>
  <scstep>
   <time name="dav">    0.19    0.19</time>
   <time name="total">    0.21    0.21</time>
   <energy>
    <i name="alphaZ">     70.30894706 </i>
    <i name="ewald">  -2754.08765235 </i>
    <i name="hartreedc">   -650.08781142 </i>
    <i name="XCdc">    185.78336870 </i>
    <i name="pawpsdc">   7464.97418783 </i>
    <i name="pawaedc">  -7515.45040431 </i>
    <i name="eentropy">      0.00000000 </i>
    <i name="bandstr">   -647.37725347 </i>
    <i name="atom">   3769.08782378 </i>
    <i name="e_fr_energy">    -76.84879418 </i>
    <i name="e_wo_entrp">    -76.84879418 </i>
    <i name="e_0_energy">    -76.84879418 </i>
   </energy>
  </scstep>
  <scstep>
   <time name="diag">    0.05    0.05</time>
   <time name="diis">    0.10    0.10</time>
   <time name="orth">    0.01    0.01</time>
   <time name="total">    0.18    0.18</time>
   <energy>
    <i name="e_fr_energy">    -76.85017826 </i>
    <i name="e_wo_entrp">    -76.85017826 </i>
    <i name="e_0_energy">    -76.85017826 </i>
   </energy>
  </scstep>
  <scstep>
   <time name="diag">    0.05    0.05</time>
   <time name="diis">    0.12    0.12</time>
   <time name="orth">    0.01    0.01</time>
   <time name="total">    0.20    0.20</time>
   <energy>
    <i name="e_fr_energy">    -76.84734362 </i>
    <i name="e_wo_entrp">    -76.84734362 </i>
    <i name="e_0_energy">    -76.84734362 </i>
   </energy>
  </scstep>
  <scstep>
   <time name="diag">    0.05    0.05</time>
   <time name="diis">    0.11    0.11</time>
   <time name="orth">    0.01    0.01</time>
   <time name="total">    0.19    0.19</time>
   <energy>
    <i name="e_fr_energy">    -76.84662735 </i>
    <i name="e_wo_entrp">    -76.84662735 </i>
    <i name="e_0_energy">    -76.84662735 </i>
   </energy>
  </scstep>
  <scstep>
   <time name="diag">    0.05    0.05</time>
   <time name="diis">    0.12    0.12</time>
   <time name="orth">    0.01    0.01</time>
   <time name="total">    0.20    0.20</time>
   <energy>
    <i name="e_fr_energy">    -76.84668569 </i>
    <i name="e_wo_entrp">    -76.84668569 </i>
    <i name="e_0_energy">    -76.84668569 </i>
   </energy>
  </scstep>
  <scstep>
   <time name="diag">    0.05    0.05</time>
   <time name="diis">    0.11    0.11</time>
   <time name="orth">    0.01    0.01</time>
   <time name="total">    0.20    0.20</time>
   <energy>
    <i name="e_fr_energy">    -76.84672350 </i>
    <i name="e_wo_entrp">    -76.84672350 </i>
    <i name="e_0_energy">    -76.84672350 </i>
   </energy>
  </scstep>
  <scstep>
   <time name="diag">    0.05    0.05</time>
   <time name="diis">    0.11    0.11</time>
   <time name="orth">    0.01    0.01</time>
   <time name="total">    0.19    0.19</time>
   <energy>
    <i name="e_fr_energy">    -76.84673646 </i>
    <i name="e_wo_entrp">    -76.84673646 </i>
    <i name="e_0_energy">    -76.84673646 </i>
   </energy>
  </scstep>
  <scstep>
   <time name="diag">    0.05    0.05</time>
   <time name="diis">    0.05    0.05</time>
   <time name="orth">    0.01    0.01</time>
   <time name="total">    0.12    0.12</time>
   <energy>
    <i name="alphaZ">     70.30894706 </i>
    <i name="ewald">  -2754.08765235 </i>
    <i name="hartreedc">   -646.77469864 </i>
    <i name="XCdc">    185.53767295 </i>
    <i name="pawpsdc">   7527.61176695 </i>
    <i name="pawaedc">  -7578.06342110 </i>
    <i name="eentropy">      0.00000000 </i>
    <i name="bandstr">   -650.46717066 </i>
    <i name="atom">   3769.08782378 </i>
    <i name="e_fr_energy">    -76.84673201 </i>
    <i name="e_wo_entrp">    -76.84673201 </i>
    <i name="e_0_energy">    -76.84673201 </i>
   </energy>
  </scstep>
  <structure>
   <crystal>
    <varray name="basis" >
     <v>       7.73090506       0.00000000       0.00000000 </v>
     <v>       0.00000000       6.12441074       0.00000000 </v>
     <v>       0.00000000       0.00000000       5.92771005 </v>
    </varray>
    <i name="volume">    280.66069876 </i>
    <varray name="rec_basis" >
     <v>       0.12935096       0.00000000       0.00000000 </v>
     <v>       0.00000000       0.16328101       0.00000000 </v>
     <v>       0.00000000       0.00000000       0.16869921 </v>
    </varray>
   </crystal>
   <varray name="positions" >
    <v>       0.00000000       0.77098677       0.43914872 </v>
    <v>       0.50000000       0.22901323       0.93914872 </v>
    <v>       0.20786980       0.60217074       0.55445032 </v>
    <v>       0.29213020       0.39782926       0.05445032 </v>
    <v>       0.70786980       0.39782926       0.05445032 </v>
    <v>       0.79213020       0.60217074       0.55445032 </v>
    <v>       0.00000000       0.82289319       0.10012561 </v>
    <v>       0.50000000       0.17710681       0.60012561 </v>
    <v>       0.00000000       0.06159689       0.60214953 </v>
    <v>       0.50000000       0.93840311       0.10214953 </v>
    <v>       0.00000000       0.43291491       0.85287120 </v>
    <v>       0.50000000       0.56708509       0.35287120 </v>
    <v>       0.26743603       0.76937322       0.91258464 </v>
    <v>       0.23256397       0.23062678       0.41258464 </v>
    <v>       0.76743603       0.23062678       0.41258464 </v>
    <v>       0.73256397       0.76937322       0.91258464 </v>
   </varray>
  </structure>
  <varray name="forces" >
   <v>       0.00000000       0.15476670      -0.14467041 </v>
   <v>       0.00000000      -0.15476670      -0.14467041 </v>
   <v>       0.23297224      -0.07738043       0.13905374 </v>
   <v>      -0.23297224       0.07738043       0.13905374 </v>
   <v>       0.23297224       0.07738043       0.13905374 </v>
   <v>      -0.23297224      -0.07738043       0.13905374 </v>
   <v>       0.00000000      -0.06568725       0.02543736 </v>
   <v>       0.00000000       0.06568725       0.02543736 </v>
   <v>       0.00000000       0.16527329      -0.05463577 </v>
   <v>       0.00000000      -0.16527329      -0.05463577 </v>
   <v>       0.00000000       0.02854976      -0.03380965 </v>
   <v>       0.00000000      -0.02854976      -0.03380965 </v>
   <v>       0.04505927       0.05375965      -0.03521451 </v>
   <v>      -0.04505927      -0.05375965      -0.03521451 </v>
   <v>       0.04505927      -0.05375965      -0.03521451 </v>
   <v>      -0.04505927       0.05375965      -0.03521451 </v>
  </varray>
  <varray name="stress" >
   <v>       6.16334329       0.00000000       0.00000000 </v>
   <v>       0.00000000       5.92961346       0.00000000 </v>
   <v>       0.00000000       0.00000000       0.57714043 </v>
  </varray>
  <energy>
   <i name="e_fr_energy">    -76.84673201 </i>
   <i name="e_wo_entrp">    -76.84673201 </i>
   <i name="e_0_energy">      0.00000000 </i>
  </energy>
  <time name="totalsc">    1.68    1.69</time>
 </calculation>
 <calculation>
  <scstep>
   <time name="dav">    0.17    0.17</time>
   <time name="total">    0.20    0.20</time>
   <energy>
    <i name="alphaZ">     70.22443646 </i>
    <i name="ewald">  -2756.09743015 </i>
    <i name="hartreedc">   -644.13872863 </i>
    <i name="XCdc">    185.39152776 </i>
    <i name="pawpsdc">   7526.88108991 </i>
    <i name="pawaedc">  -7577.33321296 </i>
    <i name="eentropy">      0.00000000 </i>
    <i name="bandstr">   -650.86733571 </i>
    <i name="atom">   3769.08782378 </i>
    <i name="e_fr_energy">    -76.85182954 </i>
    <i name="e_wo_entrp">    -76.85182954 </i>
    <i name="e_0_energy">    -76.85182954 </i>
   </energy>
  </scstep>
  <scstep>
   <time name="diag">    0.05    0.05</time>
   <time name="diis">    0.10    0.10</time>
   <time name="orth">    0.01    0.01</time>
   <time name="total">    0.18    0.18</time>
   <energy>
    <i name="e_fr_energy">    -76.86184509 </i>
    <i name="e_wo_entrp">    -76.86184509 </i>
    <i name="e_0_energy">    -76.86184509 </i>
   </energy>
  </scstep>
  <scstep>
   <time name="diag">    0.05    0.05</time>
   <time name="diis">    0.13    0.13</time>
   <time name="orth">    0.01    0.01</time>
   <time name="total">    0.22    0.22</time>
   <energy>
    <i name="e_fr_energy">    -76.86120165 </i>
    <i name="e_wo_entrp">    -76.86120165 </i>
    <i name="e_0_energy">    -76.86120165 </i>
   </energy>
  </scstep>
  <scstep>
   <time name="diag">    0.05    0.05</time>
   <time name="diis">    0.12    0.12</time>
   <time name="orth">    0.01    0.01</time>
   <time name="total">    0.20    0.20</time>
   <energy>
    <i name="e_fr_energy">    -76.86089312 </i>
    <i name="e_wo_entrp">    -76.86089312 </i>
    <i name="e_0_energy">    -76.86089312 </i>
   </energy>
  </scstep>
  <scstep>
   <time name="diag">    0.05    0.05</time>
   <time name="diis">    0.12    0.12</time>
   <time name="orth">    0.01    0.01</time>
   <time name="total">    0.21    0.21</time>
   <energy>
    <i name="e_fr_energy">    -76.86096311 </i>
    <i name="e_wo_entrp">    -76.86096311 </i>
    <i name="e_0_energy">    -76.86096311 </i>
   </energy>
  </scstep>
  <scstep>
   <time name="diag">    0.05    0.05</time>
   <time name="diis">    0.12    0.12</time>
   <time name="orth">    0.01    0.01</time>
   <time name="total">    0.20    0.20</time>
   <energy>
    <i name="e_fr_energy">    -76.86099418 </i>
    <i name="e_wo_entrp">    -76.86099418 </i>
    <i name="e_0_energy">    -76.86099418 </i>
   </energy>
  </scstep>
  <scstep>
   <time name="diag">    0.05    0.05</time>
   <time name="diis">    0.07    0.07</time>
   <time name="orth">    0.01    0.01</time>
   <time name="total">    0.14    0.14</time>
   <energy>
    <i name="alphaZ">     70.22443646 </i>
    <i name="ewald">  -2756.09743015 </i>
    <i name="hartreedc">   -644.52420735 </i>
    <i name="XCdc">    185.42126737 </i>
    <i name="pawpsdc">   7439.63281716 </i>
    <i name="pawaedc">  -7490.04424306 </i>
    <i name="eentropy">      0.00000000 </i>
    <i name="bandstr">   -650.56146583 </i>
    <i name="atom">   3769.08782378 </i>
    <i name="e_fr_energy">    -76.86100161 </i>
    <i name="e_wo_entrp">    -76.86100161 </i>
    <i name="e_0_energy">    -76.86100161 </i>
   </energy>
  </scstep>
  <structure>
   <crystal>
    <varray name="basis" >
     <v>       7.72810594       0.00000000       0.00000000 </v>
     <v>       0.00000000       6.13371764       0.00000000 </v>
     <v>       0.00000000       0.00000000       5.92798488 </v>
    </varray>
    <i name="volume">    280.99845590 </i>
    <varray name="rec_basis" >
     <v>       0.12939781       0.00000000       0.00000000 </v>
     <v>       0.00000000       0.16303326       0.00000000 </v>
     <v>       0.00000000       0.00000000       0.16869139 </v>
    </varray>
   </crystal>
   <varray name="positions" >
    <v>       0.00000000       0.77171846       0.43810434 </v>
    <v>       0.50000000       0.22828154       0.93810434 </v>
    <v>       0.20885565       0.60250035       0.55648506 </v>
    <v>       0.29114435       0.39749965       0.05648506 </v>
    <v>       0.70885565       0.39749965       0.05648506 </v>
    <v>       0.79114435       0.60250035       0.55648506 </v>
    <v>       0.00000000       0.82236014       0.09983148 </v>
    <v>       0.50000000       0.17763986       0.59983148 </v>
    <v>       0.00000000       0.06257541       0.60101023 </v>
    <v>       0.50000000       0.93742459       0.10101023 </v>
    <v>       0.00000000       0.43322795       0.85237776 </v>
    <v>       0.50000000       0.56677205       0.35237776 </v>
    <v>       0.26787132       0.77014229       0.91203552 </v>
    <v>       0.23212868       0.22985771       0.41203552 </v>
    <v>       0.76787132       0.22985771       0.41203552 </v>
    <v>       0.73212868       0.77014229       0.91203552 </v>
   </varray>
  </structure>
  <varray name="forces" >
   <v>      -0.00000000       0.00673469       0.09002736 </v>
   <v>      -0.00000000      -0.00673469       0.09002736 </v>
   <v>       0.04979866       0.00077004       0.02242107 </v>
   <v>      -0.04979866      -0.00077004       0.02242107 </v>
   <v>       0.04979866      -0.00077004       0.02242107 </v>
   <v>      -0.04979866       0.00077004       0.02242107 </v>
   <v>      -0.00000000      -0.06236896      -0.00518082 </v>
   <v>      -0.00000000       0.06236896      -0.00518082 </v>
   <v>      -0.00000000       0.09438885      -0.06248668 </v>
   <v>      -0.00000000      -0.09438885      -0.06248668 </v>
   <v>      -0.00000000       0.03209200      -0.03059889 </v>
   <v>      -0.00000000      -0.03209200      -0.03059889 </v>
   <v>       0.02930796       0.02625749      -0.01830156 </v>
   <v>      -0.02930796      -0.02625749      -0.01830156 </v>
   <v>       0.02930796      -0.02625749      -0.01830156 </v>
   <v>      -0.02930796       0.02625749      -0.01830156 </v>
  </varray>
  <varray name="stress" >
   <v>       0.07101880       0.00000000       0.00000000 </v>
   <v>       0.00000000       1.67590835       0.00000000 </v>
   <v>       0.00000000       0.00000000       0.35731786 </v>
  </varray>
  <energy>
   <i name="e_fr_energy">    -76.86100161 </i>
   <i name="e_wo_entrp">    -76.86100161 </i>
   <i name="e_0_energy">      0.00000000 </i>
  </energy>
  <time name="totalsc">    1.53    1.54</time>
 </calculation>
 <calculation>
  <scstep>
   <time name="dav">    0.19    0.19</time>
   <time name="total">    0.21    0.22</time>
   <energy>
    <i name="alphaZ">     70.19371080 </i>
    <i name="ewald">  -2756.79934539 </i>
    <i name="hartreedc">   -643.58311957 </i>
    <i name="XCdc">    185.36919713 </i>
    <i name="pawpsdc">   7441.05143064 </i>
    <i name="pawaedc">  -7491.45949560 </i>
    <i name="eentropy">      0.00000000 </i>
    <i name="bandstr">   -650.72081755 </i>
    <i name="atom">   3769.08782378 </i>
    <i name="e_fr_energy">    -76.86061577 </i>
    <i name="e_wo_entrp">    -76.86061577 </i>
    <i name="e_0_energy">    -76.86061577 </i>
   </energy>
  </scstep>
  <scstep>
   <time name="diag">    0.05    0.05</time>
   <time name="diis">    0.10    0.10</time>
   <time name="orth">    0.01    0.01</time>
   <time name="total">    0.18    0.18</time>
   <energy>
    <i name="e_fr_energy">    -76.86191891 </i>
    <i name="e_wo_entrp">    -76.86191891 </i>
    <i name="e_0_energy">    -76.86191891 </i>
   </energy>
  </scstep>
  <scstep>
   <time name="diag">    0.05    0.05</time>
   <time name="diis">    0.13    0.13</time>
   <time name="orth">    0.01    0.01</time>
   <time name="total">    0.21    0.21</time>
   <energy>
    <i name="e_fr_energy">    -76.86190810 </i>
    <i name="e_wo_entrp">    -76.86190810 </i>
    <i name="e_0_energy">    -76.86190810 </i>
   </energy>
  </scstep>
  <scstep>
   <time name="diag">    0.05    0.05</time>
   <time name="diis">    0.12    0.12</time>
   <time name="orth">    0.01    0.01</time>
   <time name="total">    0.20    0.20</time>
   <energy>
    <i name="e_fr_energy">    -76.86188392 </i>
    <i name="e_wo_entrp">    -76.86188392 </i>
    <i name="e_0_energy">    -76.86188392 </i>
   </energy>
  </scstep>
  <scstep>
   <time name="diag">    0.05    0.05</time>
   <time name="diis">    0.06    0.06</time>
   <time name="orth">    0.01    0.01</time>
   <time name="total">    0.12    0.12</time>
   <energy>
    <i name="alphaZ">     70.19371080 </i>
    <i name="ewald">  -2756.79934539 </i>
    <i name="hartreedc">   -643.72649621 </i>
    <i name="XCdc">    185.38047829 </i>
    <i name="pawpsdc">   7410.81483805 </i>
    <i name="pawaedc">  -7461.20855563 </i>
    <i name="eentropy">      0.00000000 </i>
    <i name="bandstr">   -650.60433227 </i>
    <i name="atom">   3769.08782378 </i>
    <i name="e_fr_energy">    -76.86187858 </i>
    <i name="e_wo_entrp">    -76.86187858 </i>
    <i name="e_0_energy">    -76.86187858 </i>
   </energy>
  </scstep>
  <structure>
   <crystal>
    <varray name="basis" >
     <v>       7.72708601       0.00000000       0.00000000 </v>
     <v>       0.00000000       6.13710882       0.00000000 </v>
     <v>       0.00000000       0.00000000       5.92808502 </v>
    </varray>
    <i name="volume">    281.12145643 </i>
    <varray name="rec_basis" >
     <v>       0.12941489       0.00000000       0.00000000 </v>
     <v>       0.00000000       0.16294318       0.00000000 </v>
     <v>       0.00000000       0.00000000       0.16868854 </v>
    </varray>
   </crystal>
   <varray name="positions" >
    <v>       0.00000000       0.77198467       0.43772382 </v>
    <v>       0.50000000       0.22801533       0.93772382 </v>
    <v>       0.20921500       0.60262027       0.55722643 </v>
    <v>       0.29078500       0.39737973       0.05722643 </v>
    <v>       0.70921500       0.39737973       0.05722643 </v>
    <v>       0.79078500       0.60262027       0.55722643 </v>
    <v>       0.00000000       0.82216620       0.09972431 </v>
    <v>       0.50000000       0.17783380       0.59972431 </v>
    <v>       0.00000000       0.06293142       0.60059512 </v>
    <v>       0.50000000       0.93706858       0.10059512 </v>
    <v>       0.00000000       0.43334184       0.85219797 </v>
    <v>       0.50000000       0.56665816       0.35219797 </v>
    <v>       0.26802998       0.77042210       0.91183545 </v>
    <v>       0.23197002       0.22957790       0.41183545 </v>
    <v>       0.76802998       0.22957790       0.41183545 </v>
    <v>       0.73197002       0.77042210       0.91183545 </v>
   </varray>
  </structure>
  <varray name="forces" >
   <v>       0.00000000      -0.04604131       0.17493625 </v>
   <v>       0.00000000       0.04604131       0.17493625 </v>
   <v>      -0.01600709       0.02907680      -0.02028849 </v>
   <v>       0.01600709      -0.02907680      -0.02028849 </v>
   <v>      -0.01600709      -0.02907680      -0.02028849 </v>
   <v>       0.01600709       0.02907680      -0.02028849 </v>
   <v>       0.00000000      -0.06278379      -0.01562316 </v>
   <v>       0.00000000       0.06278379      -0.01562316 </v>
   <v>       0.00000000       0.06800319      -0.06469973 </v>
   <v>       0.00000000      -0.06800319      -0.06469973 </v>
   <v>       0.00000000       0.03278255      -0.02864425 </v>
   <v>       0.00000000      -0.03278255      -0.02864425 </v>
   <v>       0.02327825       0.01682617      -0.01269606 </v>
   <v>      -0.02327825      -0.01682617      -0.01269606 </v>
   <v>       0.02327825      -0.01682617      -0.01269606 </v>
   <v>      -0.02327825       0.01682617      -0.01269606 </v>
  </varray>
  <varray name="stress" >
   <v>      -2.00328606       0.00000000       0.00000000 </v>
   <v>       0.00000000       0.44849154       0.00000000 </v>
   <v>       0.00000000       0.00000000       0.33465666 </v>
  </varray>
  <energy>
   <i name="e_fr_energy">    -76.86187858 </i>
   <i name="e_wo_entrp">    -76.86187858 </i>
   <i name="e_0_energy">      0.00000000 </i>
  </energy>
  <time name="totalsc">    1.12    1.13</time>
 </calculation>
 <calculation>
  <scstep>
   <time name="dav">    0.17    0.17</time>
   <time name="total">    0.20    0.20</time>
   <energy>
    <i name="alphaZ">     70.20202829 </i>
    <i name="ewald">  -2757.22778028 </i>
    <i name="hartreedc">   -643.56200582 </i>
    <i name="XCdc">    185.38114442 </i>
    <i name="pawpsdc">   7408.93135352 </i>
    <i name="pawaedc">  -7459.32316037 </i>
    <i name="eentropy">      0.00000000 </i>
    <i name="bandstr">   -650.35262555 </i>
    <i name="atom">   3769.08782378 </i>
    <i name="e_fr_energy">    -76.86322203 </i>
    <i name="e_wo_entrp">    -76.86322203 </i>
    <i name="e_0_energy">    -76.86322203 </i>
   </energy>
  </scstep>
  <scstep>
   <time name="diag">    0.05    0.05</time>
   <time name="diis">    0.10    0.10</time>
   <time name="orth">    0.01    0.01</time>
   <time name="total">    0.18    0.18</time>
   <energy>
    <i name="e_fr_energy">    -76.86484856 </i>
    <i name="e_wo_entrp">    -76.86484856 </i>
    <i name="e_0_energy">    -76.86484856 </i>
   </energy>
  </scstep>
  <scstep>
   <time name="diag">    0.05    0.05</time>
   <time name="diis">    0.13    0.13</time>
   <time name="orth">    0.01    0.01</time>
   <time name="total">    0.21    0.21</time>
   <energy>
    <i name="e_fr_energy">    -76.86473592 </i>
    <i name="e_wo_entrp">    -76.86473592 </i>
    <i name="e_0_energy">    -76.86473592 </i>
   </energy>
  </scstep>
  <scstep>
   <time name="diag">    0.05    0.05</time>
   <time name="diis">    0.11    0.11</time>
   <time name="orth">    0.01    0.01</time>
   <time name="total">    0.19    0.19</time>
   <energy>
    <i name="e_fr_energy">    -76.86468969 </i>
    <i name="e_wo_entrp">    -76.86468969 </i>
    <i name="e_0_energy">    -76.86468969 </i>
   </energy>
  </scstep>
  <scstep>
   <time name="diag">    0.05    0.05</time>
   <time name="diis">    0.09    0.09</time>
   <time name="orth">    0.01    0.01</time>
   <time name="total">    0.18    0.18</time>
   <energy>
    <i name="e_fr_energy">    -76.86470331 </i>
    <i name="e_wo_entrp">    -76.86470331 </i>
    <i name="e_0_energy">    -76.86470331 </i>
   </energy>
  </scstep>
  <scstep>
   <time name="diag">    0.05    0.05</time>
   <time name="diis">    0.08    0.08</time>
   <time name="orth">    0.01    0.01</time>
   <time name="total">    0.15    0.15</time>
   <energy>
    <i name="alphaZ">     70.20202829 </i>
    <i name="ewald">  -2757.22778028 </i>
    <i name="hartreedc">   -643.40065034 </i>
    <i name="XCdc">    185.37249928 </i>
    <i name="pawpsdc">   7396.73471288 </i>
    <i name="pawaedc">  -7447.10955733 </i>
    <i name="eentropy">      0.00000000 </i>
    <i name="bandstr">   -650.52378032 </i>
    <i name="atom">   3769.08782378 </i>
    <i name="e_fr_energy">    -76.86470405 </i>
    <i name="e_wo_entrp">    -76.86470405 </i>
    <i name="e_0_energy">    -76.86470405 </i>
   </energy>
  </scstep>
  <structure>
   <crystal>
    <varray name="basis" >
     <v>       7.72016299       0.00000000       0.00000000 </v>
     <v>       0.00000000       6.14099139       0.00000000 </v>
     <v>       0.00000000       0.00000000       5.92894714 </v>
    </varray>
    <i name="volume">    281.08814934 </i>
    <varray name="rec_basis" >
     <v>       0.12953094       0.00000000       0.00000000 </v>
     <v>       0.00000000       0.16284016       0.00000000 </v>
     <v>       0.00000000       0.00000000       0.16866401 </v>
    </varray>
   </crystal>
   <varray name="positions" >
    <v>       0.00000000       0.77193514       0.43846758 </v>
    <v>       0.50000000       0.22806486       0.93846758 </v>
    <v>       0.20943700       0.60288883       0.55771486 </v>
    <v>       0.29056300       0.39711117       0.05771486 </v>
    <v>       0.70943700       0.39711117       0.05771486 </v>
    <v>       0.79056300       0.60288883       0.55771486 </v>
    <v>       0.00000000       0.82163987       0.09954155 </v>
    <v>       0.50000000       0.17836013       0.59954155 </v>
    <v>       0.00000000       0.06362174       0.59986189 </v>
    <v>       0.50000000       0.93637826       0.09986189 </v>
    <v>       0.00000000       0.43362707       0.85187664 </v>
    <v>       0.50000000       0.56637293       0.35187664 </v>
    <v>       0.26826872       0.77075084       0.91159380 </v>
    <v>       0.23173128       0.22924916       0.41159380 </v>
    <v>       0.76826872       0.22924916       0.41159380 </v>
    <v>       0.73173128       0.77075084       0.91159380 </v>
   </varray>
  </structure>
  <varray name="forces" >
   <v>       0.00000000      -0.01086536       0.08444432 </v>
   <v>       0.00000000       0.01086536       0.08444432 </v>
   <v>      -0.01903713       0.01313142      -0.03564763 </v>
   <v>       0.01903713      -0.01313142      -0.03564763 </v>
   <v>      -0.01903713      -0.01313142      -0.03564763 </v>
   <v>       0.01903713       0.01313142      -0.03564763 </v>
   <v>       0.00000000      -0.06807921       0.06257696 </v>
   <v>       0.00000000       0.06807921       0.06257696 </v>
   <v>       0.00000000       0.02761238      -0.03836841 </v>
   <v>       0.00000000      -0.02761238      -0.03836841 </v>
   <v>       0.00000000       0.03149832      -0.02198282 </v>
   <v>       0.00000000      -0.03149832      -0.02198282 </v>
   <v>       0.00925735       0.00658222      -0.00768739 </v>
   <v>      -0.00925735      -0.00658222      -0.00768739 </v>
   <v>       0.00925735      -0.00658222      -0.00768739 </v>
   <v>      -0.00925735       0.00658222      -0.00768739 </v>
  </varray>
  <varray name="stress" >
   <v>      -1.03292230       0.00000000       0.00000000 </v>
   <v>       0.00000000      -0.53669701       0.00000000 </v>
   <v>       0.00000000       0.00000000      -1.06668844 </v>
  </varray>
  <energy>
   <i name="e_fr_energy">    -76.86470405 </i>
   <i name="e_wo_entrp">    -76.86470405 </i>
   <i name="e_0_energy">      0.00000000 </i>
  </energy>
  <time name="totalsc">    1.30    1.30</time>
 </calculation>
 <calculation>
  <scstep>
   <time name="dav">    0.18    0.18</time>
   <time name="total">    0.20    0.20</time>
   <energy>
    <i name="alphaZ">     70.20769210 </i>
    <i name="ewald">  -2757.51084140 </i>
    <i name="hartreedc">   -643.28501119 </i>
    <i name="XCdc">    185.37264734 </i>
    <i name="pawpsdc">   7396.68783875 </i>
    <i name="pawaedc">  -7447.06203819 </i>
    <i name="eentropy">      0.00000000 </i>
    <i name="bandstr">   -650.36290969 </i>
    <i name="atom">   3769.08782378 </i>
    <i name="e_fr_energy">    -76.86479850 </i>
    <i name="e_wo_entrp">    -76.86479850 </i>
    <i name="e_0_energy">    -76.86479850 </i>
   </energy>
  </scstep>
  <scstep>
   <time name="diag">    0.05    0.05</time>
   <time name="diis">    0.10    0.10</time>
   <time name="orth">    0.01    0.01</time>
   <time name="total">    0.18    0.18</time>
   <energy>
    <i name="e_fr_energy">    -76.86555885 </i>
    <i name="e_wo_entrp">    -76.86555885 </i>
    <i name="e_0_energy">    -76.86555885 </i>
   </energy>
  </scstep>
  <scstep>
   <time name="diag">    0.05    0.05</time>
   <time name="diis">    0.13    0.13</time>
   <time name="orth">    0.01    0.01</time>
   <time name="total">    0.21    0.21</time>
   <energy>
    <i name="e_fr_energy">    -76.86551098 </i>
    <i name="e_wo_entrp">    -76.86551098 </i>
    <i name="e_0_energy">    -76.86551098 </i>
   </energy>
  </scstep>
  <scstep>
   <time name="diag">    0.05    0.05</time>
   <time name="diis">    0.11    0.11</time>
   <time name="orth">    0.01    0.01</time>
   <time name="total">    0.19    0.19</time>
   <energy>
    <i name="e_fr_energy">    -76.86549246 </i>
    <i name="e_wo_entrp">    -76.86549246 </i>
    <i name="e_0_energy">    -76.86549246 </i>
   </energy>
  </scstep>
  <scstep>
   <time name="diag">    0.05    0.05</time>
   <time name="diis">    0.05    0.05</time>
   <time name="orth">    0.01    0.01</time>
   <time name="total">    0.11    0.11</time>
   <energy>
    <i name="alphaZ">     70.20769210 </i>
    <i name="ewald">  -2757.51084140 </i>
    <i name="hartreedc">   -643.17245382 </i>
    <i name="XCdc">    185.36636511 </i>
    <i name="pawpsdc">   7387.80392900 </i>
    <i name="pawaedc">  -7438.16759271 </i>
    <i name="eentropy">      0.00000000 </i>
    <i name="bandstr">   -650.48040640 </i>
    <i name="atom">   3769.08782378 </i>
    <i name="e_fr_energy">    -76.86548434 </i>
    <i name="e_wo_entrp">    -76.86548434 </i>
    <i name="e_0_energy">    -76.86548434 </i>
   </energy>
  </scstep>
  <structure>
   <crystal>
    <varray name="basis" >
     <v>       7.71548968       0.00000000       0.00000000 </v>
     <v>       0.00000000       6.14361228       0.00000000 </v>
     <v>       0.00000000       0.00000000       5.92952910 </v>
    </varray>
    <i name="volume">    281.06547333 </i>
    <varray name="rec_basis" >
     <v>       0.12960940       0.00000000       0.00000000 </v>
     <v>       0.00000000       0.16277069       0.00000000 </v>
     <v>       0.00000000       0.00000000       0.16864746 </v>
    </varray>
   </crystal>
   <varray name="positions" >
    <v>       0.00000000       0.77190174       0.43896958 </v>
    <v>       0.50000000       0.22809826       0.93896958 </v>
    <v>       0.20958699       0.60307000       0.55804453 </v>
    <v>       0.29041301       0.39693000       0.05804453 </v>
    <v>       0.70958699       0.39693000       0.05804453 </v>
    <v>       0.79041301       0.60307000       0.55804453 </v>
    <v>       0.00000000       0.82128479       0.09941819 </v>
    <v>       0.50000000       0.17871521       0.59941819 </v>
    <v>       0.00000000       0.06408745       0.59936700 </v>
    <v>       0.50000000       0.93591255       0.09936700 </v>
    <v>       0.00000000       0.43381949       0.85165976 </v>
    <v>       0.50000000       0.56618051       0.35165976 </v>
    <v>       0.26843003       0.77097262       0.91143070 </v>
    <v>       0.23156997       0.22902738       0.41143070 </v>
    <v>       0.76843003       0.22902738       0.41143070 </v>
    <v>       0.73156997       0.77097262       0.91143070 </v>
   </varray>
  </structure>
  <varray name="forces" >
   <v>       0.00000000       0.01219083       0.02695572 </v>
   <v>       0.00000000      -0.01219083       0.02695572 </v>
   <v>      -0.01756227       0.01202441      -0.03510722 </v>
   <v>       0.01756227      -0.01202441      -0.03510722 </v>
   <v>      -0.01756227      -0.01202441      -0.03510722 </v>
   <v>       0.01756227       0.01202441      -0.03510722 </v>
   <v>       0.00000000      -0.08159739       0.10678754 </v>
   <v>       0.00000000       0.08159739       0.10678754 </v>
   <v>       0.00000000       0.01094282      -0.03563855 </v>
   <v>       0.00000000      -0.01094282      -0.03563855 </v>
   <v>       0.00000000       0.03070562      -0.01697375 </v>
   <v>       0.00000000      -0.03070562      -0.01697375 </v>
   <v>       0.00030701       0.00101228      -0.00545826 </v>
   <v>      -0.00030701      -0.00101228      -0.00545826 </v>
   <v>       0.00030701      -0.00101228      -0.00545826 </v>
   <v>      -0.00030701       0.00101228      -0.00545826 </v>
  </varray>
  <varray name="stress" >
   <v>      -0.58443842       0.00000000       0.00000000 </v>
   <v>       0.00000000      -0.96990649       0.00000000 </v>
   <v>       0.00000000       0.00000000      -1.94205282 </v>
  </varray>
  <energy>
   <i name="e_fr_energy">    -76.86548434 </i>
   <i name="e_wo_entrp">    -76.86548434 </i>
   <i name="e_0_energy">      0.00000000 </i>
  </energy>
  <time name="totalsc">    1.09    1.10</time>
 </calculation>
 <calculation>
  <scstep>
   <time name="dav">    0.18    0.18</time>
   <time name="total">    0.20    0.21</time>
   <energy>
    <i name="alphaZ">     70.31971717 </i>
    <i name="ewald">  -2757.79454475 </i>
    <i name="hartreedc">   -644.39958046 </i>
    <i name="XCdc">    185.49952428 </i>
    <i name="pawpsdc">   7387.36185066 </i>
    <i name="pawaedc">  -7437.72485283 </i>
    <i name="eentropy">      0.00000000 </i>
    <i name="bandstr">   -649.21700721 </i>
    <i name="atom">   3769.08782378 </i>
    <i name="e_fr_energy">    -76.86706935 </i>
    <i name="e_wo_entrp">    -76.86706935 </i>
    <i name="e_0_energy">    -76.86706935 </i>
   </energy>
  </scstep>
  <scstep>
   <time name="diag">    0.05    0.05</time>
   <time name="diis">    0.10    0.10</time>
   <time name="orth">    0.01    0.01</time>
   <time name="total">    0.18    0.18</time>
   <energy>
    <i name="e_fr_energy">    -76.86740278 </i>
    <i name="e_wo_entrp">    -76.86740278 </i>
    <i name="e_0_energy">    -76.86740278 </i>
   </energy>
  </scstep>
  <scstep>
   <time name="diag">    0.05    0.05</time>
   <time name="diis">    0.12    0.12</time>
   <time name="orth">    0.01    0.01</time>
   <time name="total">    0.20    0.20</time>
   <energy>
    <i name="e_fr_energy">    -76.86726450 </i>
    <i name="e_wo_entrp">    -76.86726450 </i>
    <i name="e_0_energy">    -76.86726450 </i>
   </energy>
  </scstep>
  <scstep>
   <time name="diag">    0.05    0.05</time>
   <time name="diis">    0.11    0.11</time>
   <time name="orth">    0.01    0.01</time>
   <time name="total">    0.19    0.19</time>
   <energy>
    <i name="e_fr_energy">    -76.86724093 </i>
    <i name="e_wo_entrp">    -76.86724093 </i>
    <i name="e_0_energy">    -76.86724093 </i>
   </energy>
  </scstep>
  <scstep>
   <time name="diag">    0.05    0.05</time>
   <time name="diis">    0.05    0.05</time>
   <time name="orth">    0.01    0.01</time>
   <time name="total">    0.12    0.12</time>
   <energy>
    <i name="alphaZ">     70.31971717 </i>
    <i name="ewald">  -2757.79454475 </i>
    <i name="hartreedc">   -643.68283240 </i>
    <i name="XCdc">    185.44445699 </i>
    <i name="pawpsdc">   7428.26439756 </i>
    <i name="pawaedc">  -7478.62622643 </i>
    <i name="eentropy">      0.00000000 </i>
    <i name="bandstr">   -649.88002753 </i>
    <i name="atom">   3769.08782378 </i>
    <i name="e_fr_energy">    -76.86723561 </i>
    <i name="e_wo_entrp">    -76.86723561 </i>
[...]
       <r>   -9.0691    1.0000 </r>
       <r>   -4.9252    1.0000 </r>
       <r>   -4.7334    1.0000 </r>
       <r>   -2.2147    1.0000 </r>
       <r>   -2.1729    1.0000 </r>
       <r>   -2.0728    1.0000 </r>
       <r>   -2.0073    1.0000 </r>
       <r>   -1.7649    1.0000 </r>
       <r>   -1.6179    1.0000 </r>
       <r>   -0.0288    1.0000 </r>
       <r>    0.2192    1.0000 </r>
       <r>    0.2984    1.0000 </r>
       <r>    0.4657    1.0000 </r>
       <r>    0.6267    1.0000 </r>
       <r>    0.7436    1.0000 </r>
       <r>    0.9462    1.0000 </r>
       <r>    1.0406    1.0000 </r>
       <r>    1.1797    1.0000 </r>
       <r>    1.3146    1.0000 </r>
       <r>    1.6830    1.0000 </r>
       <r>    2.0985    1.0000 </r>
       <r>    2.2487    1.0000 </r>
       <r>    2.3514    1.0000 </r>
       <r>    2.4852    1.0000 </r>
       <r>    2.5441    1.0000 </r>
       <r>    5.5716    0.0000 </r>
       <r>    5.9103    0.0000 </r>
       <r>    6.5283    0.0000 </r>
       <r>    6.7804    0.0000 </r>
       <r>    6.8213    0.0000 </r>
       <r>    6.9922    0.0000 </r>
       <r>    7.1330    0.0000 </r>
       <r>    7.2472    0.0000 </r>
       <r>    8.5225    0.0000 </r>
       <r>    8.7006    0.0000 </r>
      </set>
      <set comment="kpoint 8">
       <r>  -41.3715    1.0000 </r>
       <r>  -41.3714    1.0000 </r>
       <r>  -40.6915    1.0000 </r>
       <r>  -40.6915    1.0000 </r>
       <r>  -40.6909    1.0000 </r>
       <r>  -40.6909    1.0000 </r>
       <r>  -12.2327    1.0000 </r>
       <r>  -12.2132    1.0000 </r>
       <r>   -9.4314    1.0000 </r>
       <r>   -9.4137    1.0000 </r>
       <r>   -9.3031    1.0000 </r>
       <r>   -9.2692    1.0000 </r>
       <r>   -9.0981    1.0000 </r>
       <r>   -9.0715    1.0000 </r>
       <r>   -4.8421    1.0000 </r>
       <r>   -4.7617    1.0000 </r>
       <r>   -2.2176    1.0000 </r>
       <r>   -2.1808    1.0000 </r>
       <r>   -2.0014    1.0000 </r>
       <r>   -1.9166    1.0000 </r>
       <r>   -1.7669    1.0000 </r>
       <r>   -1.6892    1.0000 </r>
       <r>   -0.1041    1.0000 </r>
       <r>    0.0198    1.0000 </r>
       <r>    0.2768    1.0000 </r>
       <r>    0.3663    1.0000 </r>
       <r>    0.5862    1.0000 </r>
       <r>    0.6329    1.0000 </r>
       <r>    1.0354    1.0000 </r>
       <r>    1.1105    1.0000 </r>
       <r>    1.3389    1.0000 </r>
       <r>    1.4053    1.0000 </r>
       <r>    1.6723    1.0000 </r>
       <r>    1.9035    1.0000 </r>
       <r>    2.2501    1.0000 </r>
       <r>    2.2862    1.0000 </r>
       <r>    2.5131    1.0000 </r>
       <r>    2.6074    1.0000 </r>
       <r>    5.7385    0.0000 </r>
       <r>    5.8999    0.0000 </r>
       <r>    6.6606    0.0000 </r>
       <r>    6.6821    0.0000 </r>
       <r>    7.0075    0.0000 </r>
       <r>    7.1391    0.0000 </r>
       <r>    7.3067    0.0000 </r>
       <r>    7.4070    0.0000 </r>
       <r>    8.5589    0.0000 </r>
       <r>    8.7169    0.0000 </r>
      </set>
     </set>
    </set>
   </array>
  </eigenvalues>
  <separator name="orbital magnetization" >
   <v name="MAGDIPOLOUT">      0.00000000      0.00000000      0.00000000</v>
  </separator>
  <dos>
   <i name="efermi">      2.82043445 </i>
   <total>
    <array>
     <dimension dim="1">gridpoints</dimension>
     <dimension dim="2">spin</dimension>
     <field>energy</field>
     <field>total</field>
     <field>integrated</field>
     <set>
      <set comment="spin 1">
       <r>   -43.8760     0.0000     0.0000 </r>
       <r>   -43.6923     0.0000     0.0000 </r>
       <r>   -43.5086     0.0000     0.0000 </r>
       <r>   -43.3250     0.0000     0.0000 </r>
       <r>   -43.1413     0.0000     0.0000 </r>
       <r>   -42.9577     0.0000     0.0000 </r>
       <r>   -42.7740     0.0000     0.0000 </r>
       <r>   -42.5903     0.0000     0.0000 </r>
       <r>   -42.4067     0.0000     0.0000 </r>
       <r>   -42.2230     0.0000     0.0000 </r>
       <r>   -42.0393     0.0000     0.0000 </r>
       <r>   -41.8557     0.0000     0.0000 </r>
       <r>   -41.6720     0.0000     0.0000 </r>
       <r>   -41.4883     0.0000     0.0000 </r>
       <r>   -41.3047     0.0000     4.0000 </r>
       <r>   -41.1210     0.0000     4.0000 </r>
       <r>   -40.9374     0.0000     4.0000 </r>
       <r>   -40.7537     0.0000     4.0000 </r>
       <r>   -40.5700     0.0000    12.0000 </r>
       <r>   -40.3864     0.0000    12.0000 </r>
       <r>   -40.2027     0.0000    12.0000 </r>
       <r>   -40.0190     0.0000    12.0000 </r>
       <r>   -39.8354     0.0000    12.0000 </r>
       <r>   -39.6517     0.0000    12.0000 </r>
       <r>   -39.4681     0.0000    12.0000 </r>
       <r>   -39.2844     0.0000    12.0000 </r>
       <r>   -39.1007     0.0000    12.0000 </r>
       <r>   -38.9171     0.0000    12.0000 </r>
       <r>   -38.7334     0.0000    12.0000 </r>
       <r>   -38.5497     0.0000    12.0000 </r>
       <r>   -38.3661     0.0000    12.0000 </r>
       <r>   -38.1824     0.0000    12.0000 </r>
       <r>   -37.9987     0.0000    12.0000 </r>
       <r>   -37.8151     0.0000    12.0000 </r>
       <r>   -37.6314     0.0000    12.0000 </r>
       <r>   -37.4478     0.0000    12.0000 </r>
       <r>   -37.2641     0.0000    12.0000 </r>
       <r>   -37.0804     0.0000    12.0000 </r>
       <r>   -36.8968     0.0000    12.0000 </r>
       <r>   -36.7131     0.0000    12.0000 </r>
       <r>   -36.5294     0.0000    12.0000 </r>
       <r>   -36.3458     0.0000    12.0000 </r>
       <r>   -36.1621     0.0000    12.0000 </r>
       <r>   -35.9784     0.0000    12.0000 </r>
       <r>   -35.7948     0.0000    12.0000 </r>
       <r>   -35.6111     0.0000    12.0000 </r>
       <r>   -35.4275     0.0000    12.0000 </r>
       <r>   -35.2438     0.0000    12.0000 </r>
       <r>   -35.0601     0.0000    12.0000 </r>
       <r>   -34.8765     0.0000    12.0000 </r>
       <r>   -34.6928     0.0000    12.0000 </r>
       <r>   -34.5091     0.0000    12.0000 </r>
       <r>   -34.3255     0.0000    12.0000 </r>
       <r>   -34.1418     0.0000    12.0000 </r>
       <r>   -33.9582     0.0000    12.0000 </r>
       <r>   -33.7745     0.0000    12.0000 </r>
       <r>   -33.5908     0.0000    12.0000 </r>
       <r>   -33.4072     0.0000    12.0000 </r>
       <r>   -33.2235     0.0000    12.0000 </r>
       <r>   -33.0398     0.0000    12.0000 </r>
       <r>   -32.8562     0.0000    12.0000 </r>
       <r>   -32.6725     0.0000    12.0000 </r>
       <r>   -32.4888     0.0000    12.0000 </r>
       <r>   -32.3052     0.0000    12.0000 </r>
       <r>   -32.1215     0.0000    12.0000 </r>
       <r>   -31.9379     0.0000    12.0000 </r>
       <r>   -31.7542     0.0000    12.0000 </r>
       <r>   -31.5705     0.0000    12.0000 </r>
       <r>   -31.3869     0.0000    12.0000 </r>
       <r>   -31.2032     0.0000    12.0000 </r>
       <r>   -31.0195     0.0000    12.0000 </r>
       <r>   -30.8359     0.0000    12.0000 </r>
       <r>   -30.6522     0.0000    12.0000 </r>
       <r>   -30.4685     0.0000    12.0000 </r>
       <r>   -30.2849     0.0000    12.0000 </r>
       <r>   -30.1012     0.0000    12.0000 </r>
       <r>   -29.9176     0.0000    12.0000 </r>
       <r>   -29.7339     0.0000    12.0000 </r>
       <r>   -29.5502     0.0000    12.0000 </r>
       <r>   -29.3666     0.0000    12.0000 </r>
       <r>   -29.1829     0.0000    12.0000 </r>
       <r>   -28.9992     0.0000    12.0000 </r>
       <r>   -28.8156     0.0000    12.0000 </r>
       <r>   -28.6319     0.0000    12.0000 </r>
       <r>   -28.4482     0.0000    12.0000 </r>
       <r>   -28.2646     0.0000    12.0000 </r>
       <r>   -28.0809     0.0000    12.0000 </r>
       <r>   -27.8973     0.0000    12.0000 </r>
       <r>   -27.7136     0.0000    12.0000 </r>
       <r>   -27.5299     0.0000    12.0000 </r>
       <r>   -27.3463     0.0000    12.0000 </r>
       <r>   -27.1626     0.0000    12.0000 </r>
       <r>   -26.9789     0.0000    12.0000 </r>
       <r>   -26.7953     0.0000    12.0000 </r>
       <r>   -26.6116     0.0000    12.0000 </r>
       <r>   -26.4280     0.0000    12.0000 </r>
       <r>   -26.2443     0.0000    12.0000 </r>
       <r>   -26.0606     0.0000    12.0000 </r>
       <r>   -25.8770     0.0000    12.0000 </r>
       <r>   -25.6933     0.0000    12.0000 </r>
       <r>   -25.5096     0.0000    12.0000 </r>
       <r>   -25.3260     0.0000    12.0000 </r>
       <r>   -25.1423     0.0000    12.0000 </r>
       <r>   -24.9586     0.0000    12.0000 </r>
       <r>   -24.7750     0.0000    12.0000 </r>
       <r>   -24.5913     0.0000    12.0000 </r>
       <r>   -24.4077     0.0000    12.0000 </r>
       <r>   -24.2240     0.0000    12.0000 </r>
       <r>   -24.0403     0.0000    12.0000 </r>
       <r>   -23.8567     0.0000    12.0000 </r>
       <r>   -23.6730     0.0000    12.0000 </r>
       <r>   -23.4893     0.0000    12.0000 </r>
       <r>   -23.3057     0.0000    12.0000 </r>
       <r>   -23.1220     0.0000    12.0000 </r>
       <r>   -22.9383     0.0000    12.0000 </r>
       <r>   -22.7547     0.0000    12.0000 </r>
       <r>   -22.5710     0.0000    12.0000 </r>
       <r>   -22.3874     0.0000    12.0000 </r>
       <r>   -22.2037     0.0000    12.0000 </r>
       <r>   -22.0200     0.0000    12.0000 </r>
       <r>   -21.8364     0.0000    12.0000 </r>
       <r>   -21.6527     0.0000    12.0000 </r>
       <r>   -21.4690     0.0000    12.0000 </r>
       <r>   -21.2854     0.0000    12.0000 </r>
       <r>   -21.1017     0.0000    12.0000 </r>
       <r>   -20.9181     0.0000    12.0000 </r>
       <r>   -20.7344     0.0000    12.0000 </r>
       <r>   -20.5507     0.0000    12.0000 </r>
       <r>   -20.3671     0.0000    12.0000 </r>
       <r>   -20.1834     0.0000    12.0000 </r>
       <r>   -19.9997     0.0000    12.0000 </r>
       <r>   -19.8161     0.0000    12.0000 </r>
       <r>   -19.6324     0.0000    12.0000 </r>
       <r>   -19.4487     0.0000    12.0000 </r>
       <r>   -19.2651     0.0000    12.0000 </r>
       <r>   -19.0814     0.0000    12.0000 </r>
       <r>   -18.8978     0.0000    12.0000 </r>
       <r>   -18.7141     0.0000    12.0000 </r>
       <r>   -18.5304     0.0000    12.0000 </r>
       <r>   -18.3468     0.0000    12.0000 </r>
       <r>   -18.1631     0.0000    12.0000 </r>
       <r>   -17.9794     0.0000    12.0000 </r>
       <r>   -17.7958     0.0000    12.0000 </r>
       <r>   -17.6121     0.0000    12.0000 </r>
       <r>   -17.4284     0.0000    12.0000 </r>
       <r>   -17.2448     0.0000    12.0000 </r>
       <r>   -17.0611     0.0000    12.0000 </r>
       <r>   -16.8775     0.0000    12.0000 </r>
       <r>   -16.6938     0.0000    12.0000 </r>
       <r>   -16.5101     0.0000    12.0000 </r>
       <r>   -16.3265     0.0000    12.0000 </r>
       <r>   -16.1428     0.0000    12.0000 </r>
       <r>   -15.9591     0.0000    12.0000 </r>
       <r>   -15.7755     0.0000    12.0000 </r>
       <r>   -15.5918     0.0000    12.0000 </r>
       <r>   -15.4082     0.0000    12.0000 </r>
       <r>   -15.2245     0.0000    12.0000 </r>
       <r>   -15.0408     0.0000    12.0000 </r>
       <r>   -14.8572     0.0000    12.0000 </r>
       <r>   -14.6735     0.0000    12.0000 </r>
       <r>   -14.4898     0.0000    12.0000 </r>
       <r>   -14.3062     0.0000    12.0000 </r>
       <r>   -14.1225     0.0000    12.0000 </r>
       <r>   -13.9388     0.0000    12.0000 </r>
       <r>   -13.7552     0.0000    12.0000 </r>
       <r>   -13.5715     0.0000    12.0000 </r>
       <r>   -13.3879     0.0000    12.0000 </r>
       <r>   -13.2042     0.0000    12.0000 </r>
       <r>   -13.0205     0.0000    12.0000 </r>
       <r>   -12.8369     0.0000    12.0000 </r>
       <r>   -12.6532     0.0000    12.0000 </r>
       <r>   -12.4695     0.0000    12.0000 </r>
       <r>   -12.2859    17.3552    13.1281 </r>
       <r>   -12.1022     0.0000    16.0000 </r>
       <r>   -11.9185     0.0000    16.0000 </r>
       <r>   -11.7349     0.0000    16.0000 </r>
       <r>   -11.5512     0.0000    16.0000 </r>
       <r>   -11.3676     0.0000    16.0000 </r>
       <r>   -11.1839     0.0000    16.0000 </r>
       <r>   -11.0002     0.0000    16.0000 </r>
       <r>   -10.8166     0.0000    16.0000 </r>
       <r>   -10.6329     0.0000    16.0000 </r>
       <r>   -10.4492     0.0000    16.0000 </r>
       <r>   -10.2656     0.0000    16.0000 </r>
       <r>   -10.0819     0.0000    16.0000 </r>
       <r>    -9.8983     0.0000    16.0000 </r>
       <r>    -9.7146     0.0000    16.0000 </r>
       <r>    -9.5309     0.0000    16.0000 </r>
       <r>    -9.3473     9.3857    19.6356 </r>
       <r>    -9.1636    18.5029    23.1108 </r>
       <r>    -8.9799    18.2710    26.9655 </r>
       <r>    -8.7963     0.0000    28.0000 </r>
       <r>    -8.6126     0.0000    28.0000 </r>
       <r>    -8.4289     0.0000    28.0000 </r>
       <r>    -8.2453     0.0000    28.0000 </r>
       <r>    -8.0616     0.0000    28.0000 </r>
       <r>    -7.8780     0.0000    28.0000 </r>
       <r>    -7.6943     0.0000    28.0000 </r>
       <r>    -7.5106     0.0000    28.0000 </r>
       <r>    -7.3270     0.0000    28.0000 </r>
       <r>    -7.1433     0.0000    28.0000 </r>
       <r>    -6.9596     0.0000    28.0000 </r>
       <r>    -6.7760     0.0000    28.0000 </r>
       <r>    -6.5923     0.0000    28.0000 </r>
       <r>    -6.4086     0.0000    28.0000 </r>
       <r>    -6.2250     0.0000    28.0000 </r>
       <r>    -6.0413     0.0000    28.0000 </r>
       <r>    -5.8577     0.0000    28.0000 </r>
       <r>    -5.6740     0.0000    28.0000 </r>
       <r>    -5.4903     0.0000    28.0000 </r>
       <r>    -5.3067     1.6535    28.1332 </r>
       <r>    -5.1230     4.6780    28.7631 </r>
       <r>    -4.9393     7.2513    29.7828 </r>
       <r>    -4.7557    10.6644    31.6954 </r>
       <r>    -4.5720     0.0000    32.0000 </r>
       <r>    -4.3884     0.0000    32.0000 </r>
       <r>    -4.2047     0.0000    32.0000 </r>
       <r>    -4.0210     0.0000    32.0000 </r>
       <r>    -3.8374     0.0000    32.0000 </r>
       <r>    -3.6537     0.0000    32.0000 </r>
       <r>    -3.4700     0.0000    32.0000 </r>
       <r>    -3.2864     0.0000    32.0000 </r>
       <r>    -3.1027     0.0000    32.0000 </r>
       <r>    -2.9190     0.0000    32.0000 </r>
       <r>    -2.7354     0.0000    32.0000 </r>
       <r>    -2.5517     0.0000    32.0000 </r>
       <r>    -2.3681     9.1730    33.1300 </r>
       <r>    -2.1844    18.4994    35.8587 </r>
       <r>    -2.0007     9.7379    39.1260 </r>
       <r>    -1.8171    16.8115    41.1096 </r>
       <r>    -1.6334     2.7771    43.9324 </r>
       <r>    -1.4497     0.0000    44.0000 </r>
       <r>    -1.2661     0.0000    44.0000 </r>
       <r>    -1.0824     0.0000    44.0000 </r>
       <r>    -0.8987     0.0000    44.0000 </r>
       <r>    -0.7151     0.0000    44.0000 </r>
       <r>    -0.5314     0.0000    44.0000 </r>
       <r>    -0.3478     0.0000    44.0000 </r>
       <r>    -0.1641     0.0000    44.0000 </r>
       <r>     0.0196    14.4126    46.0966 </r>
       <r>     0.2032     7.1233    48.1295 </r>
       <r>     0.3869    13.3892    50.1475 </r>
       <r>     0.5706     9.3628    52.3546 </r>
       <r>     0.7542     8.8029    54.8492 </r>
       <r>     0.9379     2.9234    55.9328 </r>
       <r>     1.1215    12.8821    58.1244 </r>
       <r>     1.3052     6.9988    59.9649 </r>
       <r>     1.4889    12.4360    61.3506 </r>
       <r>     1.6725    12.6014    63.8916 </r>
       <r>     1.8562     8.8416    66.0806 </r>
       <r>     2.0399     7.8506    68.1608 </r>
       <r>     2.2235    11.2087    70.3485 </r>
       <r>     2.4072     0.0000    72.0000 </r>
       <r>     2.5909    10.4221    74.4232 </r>
       <r>     2.7745     0.0000    76.0000 </r>
       <r>     2.9582     0.0000    76.0000 </r>
       <r>     3.1418     0.0000    76.0000 </r>
       <r>     3.3255     0.0000    76.0000 </r>
       <r>     3.5092     0.0000    76.0000 </r>
       <r>     3.6928     0.0000    76.0000 </r>
       <r>     3.8765     0.0000    76.0000 </r>
       <r>     4.0602     0.0000    76.0000 </r>
       <r>     4.2438     0.0000    76.0000 </r>
       <r>     4.4275     0.0000    76.0000 </r>
       <r>     4.6112     0.0000    76.0000 </r>
       <r>     4.7948     0.0000    76.0000 </r>
       <r>     4.9785     0.0000    76.0000 </r>
       <r>     5.1621     0.0000    76.0000 </r>
       <r>     5.3458     0.0000    76.0000 </r>
       <r>     5.5295     2.2668    76.1961 </r>
       <r>     5.7131     4.8812    77.0899 </r>
       <r>     5.8968     6.3546    78.3080 </r>
       <r>     6.0805     4.2014    79.3180 </r>
       <r>     6.2641     0.0000    80.0000 </r>
       <r>     6.4478     0.0000    80.0000 </r>
       <r>     6.6314    17.0869    81.4909 </r>
       <r>     6.8151     5.6496    83.8693 </r>
       <r>     6.9988     8.0318    84.8163 </r>
       <r>     7.1824    12.8350    87.1455 </r>
       <r>     7.3661     9.9971    89.1734 </r>
       <r>     7.5498    17.7351    91.4391 </r>
       <r>     7.7334     0.0000    92.0000 </r>
       <r>     7.9171     0.0000    92.0000 </r>
       <r>     8.1008     0.0000    92.0000 </r>
       <r>     8.2844     1.7939    92.1700 </r>
       <r>     8.4681     5.4863    92.8718 </r>
       <r>     8.6517    13.7968    94.4827 </r>
       <r>     8.8354     0.0000    96.0000 </r>
       <r>     9.0191     0.0000    96.0000 </r>
       <r>     9.2027     0.0000    96.0000 </r>
       <r>     9.3864     0.0000    96.0000 </r>
       <r>     9.5701     0.0000    96.0000 </r>
       <r>     9.7537     0.0000    96.0000 </r>
       <r>     9.9374     0.0000    96.0000 </r>
       <r>    10.1211     0.0000    96.0000 </r>
       <r>    10.3047     0.0000    96.0000 </r>
       <r>    10.4884     0.0000    96.0000 </r>
       <r>    10.6720     0.0000    96.0000 </r>
       <r>    10.8557     0.0000    96.0000 </r>
       <r>    11.0394     0.0000    96.0000 </r>
       <r>    11.2230     0.0000    96.0000 </r>
      </set>
     </set>
    </array>
   </total>
  </dos>
 </calculation>
 <structure name="finalpos" >
  <crystal>
   <varray name="basis" >
    <v>       7.74260098       0.00000000       0.00000000 </v>
    <v>       0.00000000       6.13991108       0.00000000 </v>
    <v>       0.00000000       0.00000000       5.93639352 </v>
   </varray>
   <i name="volume">    282.20950827 </i>
   <varray name="rec_basis" >
    <v>       0.12915556       0.00000000       0.00000000 </v>
    <v>       0.00000000       0.16286881       0.00000000 </v>
    <v>       0.00000000       0.00000000       0.16845244 </v>
   </varray>
  </crystal>
  <varray name="positions" >
   <v>      -0.00000000       0.77118800       0.44078234 </v>
   <v>       0.50000000       0.22881200       0.94078234 </v>
   <v>       0.20946289       0.60359311       0.55860664 </v>
   <v>       0.29053711       0.39640689       0.05860664 </v>
   <v>       0.70946289       0.39640689       0.05860664 </v>
   <v>       0.79053711       0.60359311       0.55860664 </v>
   <v>      -0.00000000       0.81290051       0.10143528 </v>
   <v>       0.50000000       0.18709949       0.60143528 </v>
   <v>      -0.00000000       0.06595912       0.59603739 </v>
   <v>       0.50000000       0.93404088       0.09603739 </v>
   <v>      -0.00000000       0.43677229       0.85006342 </v>
   <v>       0.50000000       0.56322771       0.35006342 </v>
   <v>       0.26740571       0.77107534       0.91141664 </v>
   <v>       0.23259429       0.22892466       0.41141664 </v>
   <v>       0.76740571       0.22892466       0.41141664 </v>
   <v>       0.73259429       0.77107534       0.91141664 </v>
  </varray>
 </structure>
</modeling>
