unknown system                          
           1
     7.801052    0.000000    0.000000
     0.000000    6.138096    0.000000
     0.000000    0.000000    5.931068
   P    S    Li
   2   8   6
Direct configuration=     1
   0.00000000  0.77137220  0.43993650
   0.50000000  0.22862780  0.93993650
   0.20794023  0.59959138  0.55015078
   0.29205977  0.40040862  0.05015078
   0.70794023  0.40040862  0.05015078
   0.79205977  0.59959138  0.55015078
   0.00000000  0.82349321  0.10162874
   0.50000000  0.17650679  0.60162874
   0.00000000  0.06133187  0.60500657
   0.50000000  0.93866813  0.10500657
   0.00000000  0.43237490  0.85391218
   0.50000000  0.56762510  0.35391218
   0.26661444  0.76773999  0.91378971
   0.23338556  0.23226001  0.41378971
   0.76661444  0.23226001  0.41378971
   0.73338556  0.76773999  0.91378971
unknown system                          
           1
     7.766091    0.000000    0.000000
     0.000000    6.131276    0.000000
     0.000000    0.000000    5.929394
   P    S    Li
   2   8   6
Direct configuration=     2
   0.00000000  0.77118021  0.43954393
   0.50000000  0.22881979  0.93954393
   0.20790521  0.60087620  0.55229335
   0.29209479  0.39912380  0.05229335
   0.70790521  0.39912380  0.05229335
   0.79209479  0.60087620  0.55229335
   0.00000000  0.82319433  0.10087969
   0.50000000  0.17680567  0.60087969
   0.00000000  0.06146388  0.60358284
   0.50000000  0.93853612  0.10358284
   0.00000000  0.43264389  0.85339344
   0.50000000  0.56735611  0.35339344
   0.26702299  0.76855353  0.91318920
   0.23297701  0.23144647  0.41318920
   0.76702299  0.23144647  0.41318920
   0.73297701  0.76855353  0.91318920
unknown system                          
           1
     7.730905    0.000000    0.000000
     0.000000    6.124411    0.000000
     0.000000    0.000000    5.927710
   P    S    Li
   2   8   6
Direct configuration=     3
   0.00000000  0.77098677  0.43914872
   0.50000000  0.22901323  0.93914872
   0.20786980  0.60217074  0.55445032
   0.29213020  0.39782926  0.05445032
   0.70786980  0.39782926  0.05445032
   0.79213020  0.60217074  0.55445032
   0.00000000  0.82289319  0.10012561
   0.50000000  0.17710681  0.60012561
   0.00000000  0.06159689  0.60214953
   0.50000000  0.93840311  0.10214953
   0.00000000  0.43291491  0.85287120
   0.50000000  0.56708509  0.35287120
   0.26743603  0.76937322  0.91258464
   0.23256397  0.23062678  0.41258464
   0.76743603  0.23062678  0.41258464
   0.73256397  0.76937322  0.91258464
unknown system                          
           1
     7.728106    0.000000    0.000000
     0.000000    6.133718    0.000000
     0.000000    0.000000    5.927985
   P    S    Li
   2   8   6
Direct configuration=     4
   0.00000000  0.77171846  0.43810434
   0.50000000  0.22828154  0.93810434
   0.20885565  0.60250035  0.55648506
   0.29114435  0.39749965  0.05648506
   0.70885565  0.39749965  0.05648506
   0.79114435  0.60250035  0.55648506
   0.00000000  0.82236014  0.09983148
   0.50000000  0.17763986  0.59983148
   0.00000000  0.06257541  0.60101023
   0.50000000  0.93742459  0.10101023
   0.00000000  0.43322795  0.85237776
   0.50000000  0.56677205  0.35237776
   0.26787132  0.77014229  0.91203552
   0.23212868  0.22985771  0.41203552
   0.76787132  0.22985771  0.41203552
   0.73212868  0.77014229  0.91203552
unknown system                          
           1
     7.727086    0.000000    0.000000
     0.000000    6.137109    0.000000
     0.000000    0.000000    5.928085
   P    S    Li
   2   8   6
Direct configuration=     5
   0.00000000  0.77198467  0.43772382
   0.50000000  0.22801533  0.93772382
   0.20921500  0.60262027  0.55722643
   0.29078500  0.39737973  0.05722643
   0.70921500  0.39737973  0.05722643
   0.79078500  0.60262027  0.55722643
   0.00000000  0.82216620  0.09972431
   0.50000000  0.17783380  0.59972431
   0.00000000  0.06293142  0.60059512
   0.50000000  0.93706858  0.10059512
   0.00000000  0.43334184  0.85219797
   0.50000000  0.56665816  0.35219797
   0.26802998  0.77042210  0.91183545
   0.23197002  0.22957790  0.41183545
   0.76802998  0.22957790  0.41183545
   0.73197002  0.77042210  0.91183545
unknown system                          
           1
     7.720163    0.000000    0.000000
     0.000000    6.140991    0.000000
     0.000000    0.000000    5.928947
   P    S    Li
   2   8   6
Direct configuration=     6
   0.00000000  0.77193514  0.43846758
   0.50000000  0.22806486  0.93846758
   0.20943700  0.60288883  0.55771486
   0.29056300  0.39711117  0.05771486
   0.70943700  0.39711117  0.05771486
   0.79056300  0.60288883  0.55771486
   0.00000000  0.82163987  0.09954155
   0.50000000  0.17836013  0.59954155
   0.00000000  0.06362174  0.59986189
   0.50000000  0.93637826  0.09986189
   0.00000000  0.43362707  0.85187664
   0.50000000  0.56637293  0.35187664
   0.26826872  0.77075084  0.91159380
   0.23173128  0.22924916  0.41159380
   0.76826872  0.22924916  0.41159380
   0.73173128  0.77075084  0.91159380
unknown system                          
           1
     7.715490    0.000000    0.000000
     0.000000    6.143612    0.000000
     0.000000    0.000000    5.929529
   P    S    Li
   2   8   6
Direct configuration=     7
   0.00000000  0.77190174  0.43896958
   0.50000000  0.22809826  0.93896958
   0.20958699  0.60307000  0.55804453
   0.29041301  0.39693000  0.05804453
   0.70958699  0.39693000  0.05804453
   0.79041301  0.60307000  0.55804453
   0.00000000  0.82128479  0.09941819
   0.50000000  0.17871521  0.59941819
   0.00000000  0.06408745  0.59936700
   0.50000000  0.93591255  0.09936700
   0.00000000  0.43381949  0.85165976
   0.50000000  0.56618051  0.35165976
   0.26843003  0.77097262  0.91143070
   0.23156997  0.22902738  0.41143070
   0.76843003  0.22902738  0.41143070
   0.73156997  0.77097262  0.91143070
unknown system                          
           1
     7.711441    0.000000    0.000000
     0.000000    6.142101    0.000000
     0.000000    0.000000    5.924648
   P    S    Li
   2   8   6
Direct configuration=     8
   0.00000000  0.77196786  0.43937363
   0.50000000  0.22803214  0.93937363
   0.20955995  0.60322868  0.55794765
   0.29044005  0.39677132  0.05794765
   0.70955995  0.39677132  0.05794765
   0.79044005  0.60322868  0.55794765
   0.00000000  0.82058965  0.10009678
   0.50000000  0.17941035  0.60009678
   0.00000000  0.06436314  0.59890650
   0.50000000  0.93563686  0.09890650
   0.00000000  0.43410674  0.85144865
   0.50000000  0.56589326  0.35144865
   0.26850212  0.77107611  0.91132206
   0.23149788  0.22892389  0.41132206
   0.76850212  0.22892389  0.41132206
   0.73149788  0.77107611  0.91132206
unknown system                          
           1
     7.708900    0.000000    0.000000
     0.000000    6.141152    0.000000
     0.000000    0.000000    5.921584
   P    S    Li
   2   8   6
Direct configuration=     9
   0.00000000  0.77200938  0.43962750
   0.50000000  0.22799062  0.93962750
   0.20954297  0.60332831  0.55788679
   0.29045703  0.39667169  0.05788679
   0.70954297  0.39667169  0.05788679
   0.79045703  0.60332831  0.55788679
   0.00000000  0.82015316  0.10052314
   0.50000000  0.17984684  0.60052314
   0.00000000  0.06453626  0.59861717
   0.50000000  0.93546374  0.09861717
   0.00000000  0.43428711  0.85131601
   0.50000000  0.56571289  0.35131601
   0.26854741  0.77114110  0.91125380
   0.23145259  0.22885890  0.41125380
   0.76854741  0.22885890  0.41125380
   0.73145259  0.77114110  0.91125380
unknown system                          
           1
     7.712550    0.000000    0.000000
     0.000000    6.142499    0.000000
     0.000000    0.000000    5.924338
   P    S    Li
   2   8   6
Direct configuration=    10
  -0.00000000  0.77208584  0.44006235
   0.50000000  0.22791416  0.94006235
   0.20964786  0.60336207  0.55780745
   0.29035214  0.39663793  0.05780745
   0.70964786  0.39663793  0.05780745
   0.79035214  0.60336207  0.55780745
  -0.00000000  0.81922242  0.10098023
   0.50000000  0.18077758  0.60098023
  -0.00000000  0.06502221  0.59840090
   0.50000000  0.93497779  0.09840090
  -0.00000000  0.43466225  0.85106500
   0.50000000  0.56533775  0.35106500
   0.26853842  0.77119482  0.91112081
   0.23146158  0.22880518  0.41112081
   0.76853842  0.22880518  0.41112081
   0.73146158  0.77119482  0.91112081
unknown system                          
           1
     7.723501    0.000000    0.000000
     0.000000    6.146541    0.000000
     0.000000    0.000000    5.932600
   P    S    Li
   2   8   6
Direct configuration=    11
  -0.00000000  0.77231517  0.44136628
   0.50000000  0.22768483  0.94136628
   0.20996239  0.60346331  0.55756953
   0.29003761  0.39653669  0.05756953
   0.70996239  0.39653669  0.05756953
   0.79003761  0.60346331  0.55756953
  -0.00000000  0.81643082  0.10235088
   0.50000000  0.18356918  0.60235088
  -0.00000000  0.06647973  0.59775239
   0.50000000  0.93352027  0.09775239
  -0.00000000  0.43578741  0.85031231
   0.50000000  0.56421259  0.35031231
   0.26851146  0.77135595  0.91072203
   0.23148854  0.22864405  0.41072203
   0.76851146  0.22864405  0.41072203
   0.73148854  0.77135595  0.91072203
unknown system                          
           1
     7.720454    0.000000    0.000000
     0.000000    6.145416    0.000000
     0.000000    0.000000    5.930301
   P    S    Li
   2   8   6
Direct configuration=    12
  -0.00000000  0.77225139  0.44100395
   0.50000000  0.22774861  0.94100395
   0.20987499  0.60343515  0.55763564
   0.29012501  0.39656485  0.05763564
   0.70987499  0.39656485  0.05763564
   0.79012501  0.60343515  0.55763564
  -0.00000000  0.81720711  0.10197001
   0.50000000  0.18279289  0.60197001
  -0.00000000  0.06607442  0.59793259
   0.50000000  0.93392558  0.09793259
  -0.00000000  0.43547452  0.85052146
   0.50000000  0.56452548  0.35052146
   0.26851895  0.77131114  0.91083284
   0.23148105  0.22868886  0.41083284
   0.76851895  0.22868886  0.41083284
   0.73148105  0.77131114  0.91083284
unknown system                          
           1
     7.721608    0.000000    0.000000
     0.000000    6.140251    0.000000
     0.000000    0.000000    5.939320
   P    S    Li
   2   8   6
Direct configuration=    13
  -0.00000000  0.77218948  0.44150607
   0.50000000  0.22781052  0.94150607
   0.20980903  0.60367130  0.55777227
   0.29019097  0.39632870  0.05777227
   0.70980903  0.39632870  0.05777227
   0.79019097  0.60367130  0.55777227
  -0.00000000  0.81601626  0.10195172
   0.50000000  0.18398374  0.60195172
  -0.00000000  0.06618312  0.59778879
   0.50000000  0.93381688  0.09778879
  -0.00000000  0.43595158  0.85022276
   0.50000000  0.56404842  0.35022276
   0.26833287  0.77128066  0.91067555
   0.23166713  0.22871934  0.41067555
   0.76833287  0.22871934  0.41067555
   0.73166713  0.77128066  0.91067555
unknown system                          
           1
     7.721745    0.000000    0.000000
     0.000000    6.139635    0.000000
     0.000000    0.000000    5.940396
   P    S    Li
   2   8   6
Direct configuration=    14
  -0.00000000  0.77218209  0.44156588
   0.50000000  0.22781791  0.94156588
   0.20980116  0.60369950  0.55778855
   0.29019884  0.39630050  0.05778855
   0.70980116  0.39630050  0.05778855
   0.79019884  0.60369950  0.55778855
  -0.00000000  0.81587407  0.10194954
   0.50000000  0.18412593  0.60194954
  -0.00000000  0.06619609  0.59777166
   0.50000000  0.93380391  0.09777166
  -0.00000000  0.43600854  0.85018718
   0.50000000  0.56399146  0.35018718
   0.26831067  0.77127702  0.91065681
   0.23168933  0.22872298  0.41065681
   0.76831067  0.22872298  0.41065681
   0.73168933  0.77127702  0.91065681
unknown system                          
           1
     7.726473    0.000000    0.000000
     0.000000    6.134477    0.000000
     0.000000    0.000000    5.944586
   P    S    Li
   2   8   6
Direct configuration=    15
  -0.00000000  0.77212795  0.44111013
   0.50000000  0.22787205  0.94111013
   0.20976717  0.60387066  0.55813294
   0.29023283  0.39612934  0.05813294
   0.70976717  0.39612934  0.05813294
   0.79023283  0.60387066  0.55813294
  -0.00000000  0.81479386  0.10220619
   0.50000000  0.18520614  0.60220619
  -0.00000000  0.06608884  0.59767447
   0.50000000  0.93391116  0.09767447
  -0.00000000  0.43641589  0.84996985
   0.50000000  0.56358411  0.34996985
   0.26802263  0.77119335  0.91056924
   0.23197737  0.22880665  0.41056924
   0.76802263  0.22880665  0.41056924
   0.73197737  0.77119335  0.91056924
unknown system                          
           1
     7.727515    0.000000    0.000000
     0.000000    6.133340    0.000000
     0.000000    0.000000    5.945510
   P    S    Li
   2   8   6
Direct configuration=    16
  -0.00000000  0.77211601  0.44100972
   0.50000000  0.22788399  0.94100972
   0.20975968  0.60390843  0.55820881
   0.29024032  0.39609157  0.05820881
   0.70975968  0.39609157  0.05820881
   0.79024032  0.60390843  0.55820881
  -0.00000000  0.81455552  0.10226273
   0.50000000  0.18544448  0.60226273
  -0.00000000  0.06606518  0.59765306
   0.50000000  0.93393482  0.09765306
  -0.00000000  0.43650577  0.84992198
   0.50000000  0.56349423  0.34992198
   0.26795916  0.77117489  0.91054994
   0.23204084  0.22882511  0.41054994
   0.76795916  0.22882511  0.41054994
   0.73204084  0.77117489  0.91054994
unknown system                          
           1
     7.730151    0.000000    0.000000
     0.000000    6.134263    0.000000
     0.000000    0.000000    5.944184
   P    S    Li
   2   8   6
Direct configuration=    17
  -0.00000000  0.77184368  0.44095321
   0.50000000  0.22815632  0.94095321
   0.20971351  0.60388951  0.55830557
   0.29028649  0.39611049  0.05830557
   0.70971351  0.39611049  0.05830557
   0.79028649  0.60388951  0.55830557
  -0.00000000  0.81427060  0.10213876
   0.50000000  0.18572940  0.60213876
  -0.00000000  0.06606019  0.59743711
   0.50000000  0.93393981  0.09743711
  -0.00000000  0.43659054  0.84990345
   0.50000000  0.56340946  0.34990345
   0.26782478  0.77113892  0.91066067
   0.23217522  0.22886108  0.41066067
   0.76782478  0.22886108  0.41066067
   0.73217522  0.77113892  0.91066067
unknown system                          
           1
     7.738058    0.000000    0.000000
     0.000000    6.137032    0.000000
     0.000000    0.000000    5.940208
   P    S    Li
   2   8   6
Direct configuration=    18
  -0.00000000  0.77102683  0.44078362
   0.50000000  0.22897317  0.94078362
   0.20957502  0.60383279  0.55859590
   0.29042498  0.39616721  0.05859590
   0.70957502  0.39616721  0.05859590
   0.79042498  0.60383279  0.55859590
  -0.00000000  0.81341597  0.10176675
   0.50000000  0.18658403  0.60176675
  -0.00000000  0.06604521  0.59678911
   0.50000000  0.93395479  0.09678911
  -0.00000000  0.43684478  0.84984787
   0.50000000  0.56315522  0.34984787
   0.26742176  0.77103100  0.91099291
   0.23257824  0.22896900  0.41099291
   0.76742176  0.22896900  0.41099291
   0.73257824  0.77103100  0.91099291
unknown system                          
           1
     7.735328    0.000000    0.000000
     0.000000    6.136076    0.000000
     0.000000    0.000000    5.941581
   P    S    Li
   2   8   6
Direct configuration=    19
  -0.00000000  0.77130868  0.44084220
   0.50000000  0.22869132  0.94084220
   0.20962277  0.60385236  0.55849561
   0.29037723  0.39614764  0.05849561
   0.70962277  0.39614764  0.05849561
   0.79037723  0.60385236  0.55849561
  -0.00000000  0.81371085  0.10189525
   0.50000000  0.18628915  0.60189525
  -0.00000000  0.06605038  0.59701294
   0.50000000  0.93394962  0.09701294
  -0.00000000  0.43675706  0.84986707
   0.50000000  0.56324294  0.34986707
   0.26756074  0.77106824  0.91087815
   0.23243926  0.22893176  0.41087815
   0.76756074  0.22893176  0.41087815
   0.73243926  0.77106824  0.91087815
unknown system                          
           1
     7.736628    0.000000    0.000000
     0.000000    6.136182    0.000000
     0.000000    0.000000    5.940394
   P    S    Li
   2   8   6
Direct configuration=    20
  -0.00000000  0.77127700  0.44087600
   0.50000000  0.22872300  0.94087600
   0.20960280  0.60381782  0.55853139
   0.29039720  0.39618218  0.05853139
   0.70960280  0.39618218  0.05853139
   0.79039720  0.60381782  0.55853139
  -0.00000000  0.81356020  0.10179562
   0.50000000  0.18643980  0.60179562
  -0.00000000  0.06597960  0.59680608
   0.50000000  0.93402040  0.09680608
  -0.00000000  0.43678430  0.84987666
   0.50000000  0.56321570  0.34987666
   0.26750262  0.77106209  0.91097392
   0.23249738  0.22893791  0.41097392
   0.76750262  0.22893791  0.41097392
   0.73249738  0.77106209  0.91097392
unknown system                          
           1
     7.740529    0.000000    0.000000
     0.000000    6.136501    0.000000
     0.000000    0.000000    5.936834
   P    S    Li
   2   8   6
Direct configuration=    21
  -0.00000000  0.77118196  0.44097742
   0.50000000  0.22881804  0.94097742
   0.20954288  0.60371421  0.55863876
   0.29045712  0.39628579  0.05863876
   0.70954288  0.39628579  0.05863876
   0.79045712  0.60371421  0.55863876
  -0.00000000  0.81310827  0.10149669
   0.50000000  0.18689173  0.60149669
  -0.00000000  0.06576725  0.59618536
   0.50000000  0.93423275  0.09618536
  -0.00000000  0.43686603  0.84990543
   0.50000000  0.56313397  0.34990543
   0.26732829  0.77104366  0.91126129
   0.23267171  0.22895634  0.41126129
   0.76732829  0.22895634  0.41126129
   0.73267171  0.77104366  0.91126129
unknown system                          
           1
     7.741136    0.000000    0.000000
     0.000000    6.137499    0.000000
     0.000000    0.000000    5.936705
   P    S    Li
   2   8   6
Direct configuration=    22
  -0.00000000  0.77118373  0.44092031
   0.50000000  0.22881627  0.94092031
   0.20951946  0.60367875  0.55862935
   0.29048054  0.39632125  0.05862935
   0.70951946  0.39632125  0.05862935
   0.79048054  0.60367875  0.55862935
  -0.00000000  0.81304744  0.10147871
   0.50000000  0.18695256  0.60147871
  -0.00000000  0.06582343  0.59614204
   0.50000000  0.93417657  0.09614204
  -0.00000000  0.43683858  0.84995168
   0.50000000  0.56316142  0.34995168
   0.26735095  0.77105293  0.91130677
   0.23264905  0.22894707  0.41130677
   0.76735095  0.22894707  0.41130677
   0.73264905  0.77105293  0.91130677
unknown system                          
           1
     7.742601    0.000000    0.000000
     0.000000    6.139911    0.000000
     0.000000    0.000000    5.936394
   P    S    Li
   2   8   6
Direct configuration=    23
  -0.00000000  0.77118800  0.44078234
   0.50000000  0.22881200  0.94078234
   0.20946289  0.60359311  0.55860664
   0.29053711  0.39640689  0.05860664
   0.70946289  0.39640689  0.05860664
   0.79053711  0.60359311  0.55860664
  -0.00000000  0.81290051  0.10143528
   0.50000000  0.18709949  0.60143528
  -0.00000000  0.06595912  0.59603739
   0.50000000  0.93404088  0.09603739
  -0.00000000  0.43677229  0.85006342
   0.50000000  0.56322771  0.35006342
   0.26740571  0.77107534  0.91141664
   0.23259429  0.22892466  0.41141664
   0.76740571  0.22892466  0.41141664
   0.73259429  0.77107534  0.91141664
