  16  16   0   0
  0.1801923E+02  0.7480461E-09  0.6410527E-09  0.6012211E-09  0.5000000E-15
  1.000000000000000E-004
  CAR 
 unknown system                          
     11.19854863    -43.50452719  301      2.17254112      1.00000000
    -43.505  0.0000E+00  0.0000E+00
    -43.322  0.0000E+00  0.0000E+00
    -43.140  0.0000E+00  0.0000E+00
    -42.957  0.0000E+00  0.0000E+00
    -42.775  0.0000E+00  0.0000E+00
    -42.593  0.0000E+00  0.0000E+00
    -42.410  0.0000E+00  0.0000E+00
    -42.228  0.0000E+00  0.0000E+00
    -42.046  0.0000E+00  0.0000E+00
    -41.863  0.0000E+00  0.0000E+00
    -41.681  0.0000E+00  0.0000E+00
    -41.499  0.0000E+00  0.0000E+00
    -41.316  0.0000E+00  0.0000E+00
    -41.134  0.0000E+00  0.0000E+00
    -40.952  0.0000E+00  0.4000E-01
    -40.769  0.0000E+00  0.4000E-01
    -40.587  0.0000E+00  0.1200E+00
    -40.405  0.0000E+00  0.1200E+00
    -40.222  0.0000E+00  0.1200E+00
    -40.040  0.0000E+00  0.1200E+00
    -39.858  0.0000E+00  0.1200E+00
    -39.675  0.0000E+00  0.1200E+00
    -39.493  0.0000E+00  0.1200E+00
    -39.311  0.0000E+00  0.1200E+00
    -39.128  0.0000E+00  0.1200E+00
    -38.946  0.0000E+00  0.1200E+00
    -38.764  0.0000E+00  0.1200E+00
    -38.581  0.0000E+00  0.1200E+00
    -38.399  0.0000E+00  0.1200E+00
    -38.217  0.0000E+00  0.1200E+00
    -38.034  0.0000E+00  0.1200E+00
    -37.852  0.0000E+00  0.1200E+00
    -37.670  0.0000E+00  0.1200E+00
    -37.487  0.0000E+00  0.1200E+00
    -37.305  0.0000E+00  0.1200E+00
    -37.123  0.0000E+00  0.1200E+00
    -36.940  0.0000E+00  0.1200E+00
    -36.758  0.0000E+00  0.1200E+00
    -36.575  0.0000E+00  0.1200E+00
    -36.393  0.0000E+00  0.1200E+00
    -36.211  0.0000E+00  0.1200E+00
    -36.028  0.0000E+00  0.1200E+00
    -35.846  0.0000E+00  0.1200E+00
    -35.664  0.0000E+00  0.1200E+00
    -35.481  0.0000E+00  0.1200E+00
    -35.299  0.0000E+00  0.1200E+00
    -35.117  0.0000E+00  0.1200E+00
    -34.934  0.0000E+00  0.1200E+00
    -34.752  0.0000E+00  0.1200E+00
    -34.570  0.0000E+00  0.1200E+00
    -34.387  0.0000E+00  0.1200E+00
    -34.205  0.0000E+00  0.1200E+00
    -34.023  0.0000E+00  0.1200E+00
    -33.840  0.0000E+00  0.1200E+00
    -33.658  0.0000E+00  0.1200E+00
    -33.476  0.0000E+00  0.1200E+00
    -33.293  0.0000E+00  0.1200E+00
    -33.111  0.0000E+00  0.1200E+00
    -32.929  0.0000E+00  0.1200E+00
    -32.746  0.0000E+00  0.1200E+00
    -32.564  0.0000E+00  0.1200E+00
    -32.382  0.0000E+00  0.1200E+00
    -32.199  0.0000E+00  0.1200E+00
    -32.017  0.0000E+00  0.1200E+00
    -31.835  0.0000E+00  0.1200E+00
    -31.652  0.0000E+00  0.1200E+00
    -31.470  0.0000E+00  0.1200E+00
    -31.288  0.0000E+00  0.1200E+00
    -31.105  0.0000E+00  0.1200E+00
    -30.923  0.0000E+00  0.1200E+00
    -30.740  0.0000E+00  0.1200E+00
    -30.558  0.0000E+00  0.1200E+00
    -30.376  0.0000E+00  0.1200E+00
    -30.193  0.0000E+00  0.1200E+00
    -30.011  0.0000E+00  0.1200E+00
    -29.829  0.0000E+00  0.1200E+00
    -29.646  0.0000E+00  0.1200E+00
    -29.464  0.0000E+00  0.1200E+00
    -29.282  0.0000E+00  0.1200E+00
    -29.099  0.0000E+00  0.1200E+00
    -28.917  0.0000E+00  0.1200E+00
    -28.735  0.0000E+00  0.1200E+00
    -28.552  0.0000E+00  0.1200E+00
    -28.370  0.0000E+00  0.1200E+00
    -28.188  0.0000E+00  0.1200E+00
    -28.005  0.0000E+00  0.1200E+00
    -27.823  0.0000E+00  0.1200E+00
    -27.641  0.0000E+00  0.1200E+00
    -27.458  0.0000E+00  0.1200E+00
    -27.276  0.0000E+00  0.1200E+00
    -27.094  0.0000E+00  0.1200E+00
    -26.911  0.0000E+00  0.1200E+00
    -26.729  0.0000E+00  0.1200E+00
    -26.547  0.0000E+00  0.1200E+00
    -26.364  0.0000E+00  0.1200E+00
    -26.182  0.0000E+00  0.1200E+00
    -26.000  0.0000E+00  0.1200E+00
    -25.817  0.0000E+00  0.1200E+00
    -25.635  0.0000E+00  0.1200E+00
    -25.453  0.0000E+00  0.1200E+00
    -25.270  0.0000E+00  0.1200E+00
    -25.088  0.0000E+00  0.1200E+00
    -24.905  0.0000E+00  0.1200E+00
    -24.723  0.0000E+00  0.1200E+00
    -24.541  0.0000E+00  0.1200E+00
    -24.358  0.0000E+00  0.1200E+00
    -24.176  0.0000E+00  0.1200E+00
    -23.994  0.0000E+00  0.1200E+00
    -23.811  0.0000E+00  0.1200E+00
    -23.629  0.0000E+00  0.1200E+00
    -23.447  0.0000E+00  0.1200E+00
    -23.264  0.0000E+00  0.1200E+00
    -23.082  0.0000E+00  0.1200E+00
    -22.900  0.0000E+00  0.1200E+00
    -22.717  0.0000E+00  0.1200E+00
    -22.535  0.0000E+00  0.1200E+00
    -22.353  0.0000E+00  0.1200E+00
    -22.170  0.0000E+00  0.1200E+00
    -21.988  0.0000E+00  0.1200E+00
    -21.806  0.0000E+00  0.1200E+00
    -21.623  0.0000E+00  0.1200E+00
    -21.441  0.0000E+00  0.1200E+00
    -21.259  0.0000E+00  0.1200E+00
    -21.076  0.0000E+00  0.1200E+00
    -20.894  0.0000E+00  0.1200E+00
    -20.712  0.0000E+00  0.1200E+00
    -20.529  0.0000E+00  0.1200E+00
    -20.347  0.0000E+00  0.1200E+00
    -20.165  0.0000E+00  0.1200E+00
    -19.982  0.0000E+00  0.1200E+00
    -19.800  0.0000E+00  0.1200E+00
    -19.618  0.0000E+00  0.1200E+00
    -19.435  0.0000E+00  0.1200E+00
    -19.253  0.0000E+00  0.1200E+00
    -19.070  0.0000E+00  0.1200E+00
    -18.888  0.0000E+00  0.1200E+00
    -18.706  0.0000E+00  0.1200E+00
    -18.523  0.0000E+00  0.1200E+00
    -18.341  0.0000E+00  0.1200E+00
    -18.159  0.0000E+00  0.1200E+00
    -17.976  0.0000E+00  0.1200E+00
    -17.794  0.0000E+00  0.1200E+00
    -17.612  0.0000E+00  0.1200E+00
    -17.429  0.0000E+00  0.1200E+00
    -17.247  0.0000E+00  0.1200E+00
    -17.065  0.0000E+00  0.1200E+00
    -16.882  0.0000E+00  0.1200E+00
    -16.700  0.0000E+00  0.1200E+00
    -16.518  0.0000E+00  0.1200E+00
    -16.335  0.0000E+00  0.1200E+00
    -16.153  0.0000E+00  0.1200E+00
    -15.971  0.0000E+00  0.1200E+00
    -15.788  0.0000E+00  0.1200E+00
    -15.606  0.0000E+00  0.1200E+00
    -15.424  0.0000E+00  0.1200E+00
    -15.241  0.0000E+00  0.1200E+00
    -15.059  0.0000E+00  0.1200E+00
    -14.877  0.0000E+00  0.1200E+00
    -14.694  0.0000E+00  0.1200E+00
    -14.512  0.0000E+00  0.1200E+00
    -14.330  0.0000E+00  0.1200E+00
    -14.147  0.0000E+00  0.1200E+00
    -13.965  0.0000E+00  0.1200E+00
    -13.783  0.0000E+00  0.1200E+00
    -13.600  0.0000E+00  0.1200E+00
    -13.418  0.0000E+00  0.1200E+00
    -13.235  0.0000E+00  0.1200E+00
    -13.053  0.0000E+00  0.1200E+00
    -12.871  0.0000E+00  0.1200E+00
    -12.688  0.0000E+00  0.1200E+00
    -12.506  0.3941E+00  0.1454E+00
    -12.324  0.0000E+00  0.1600E+00
    -12.141  0.0000E+00  0.1600E+00
    -11.959  0.0000E+00  0.1600E+00
    -11.777  0.0000E+00  0.1600E+00
    -11.594  0.0000E+00  0.1600E+00
    -11.412  0.0000E+00  0.1600E+00
    -11.230  0.0000E+00  0.1600E+00
    -11.047  0.0000E+00  0.1600E+00
    -10.865  0.0000E+00  0.1600E+00
    -10.683  0.0000E+00  0.1600E+00
    -10.500  0.0000E+00  0.1600E+00
    -10.318  0.0000E+00  0.1600E+00
    -10.136  0.0000E+00  0.1600E+00
     -9.953  0.0000E+00  0.1600E+00
     -9.771  0.0000E+00  0.1600E+00
     -9.589  0.2917E+00  0.1800E+00
     -9.406  0.6642E+00  0.2484E+00
     -9.224  0.0000E+00  0.2800E+00
     -9.042  0.0000E+00  0.2800E+00
     -8.859  0.0000E+00  0.2800E+00
     -8.677  0.0000E+00  0.2800E+00
     -8.495  0.0000E+00  0.2800E+00
     -8.312  0.0000E+00  0.2800E+00
     -8.130  0.0000E+00  0.2800E+00
     -7.948  0.0000E+00  0.2800E+00
     -7.765  0.0000E+00  0.2800E+00
     -7.583  0.0000E+00  0.2800E+00
     -7.400  0.0000E+00  0.2800E+00
     -7.218  0.0000E+00  0.2800E+00
     -7.036  0.0000E+00  0.2800E+00
     -6.853  0.0000E+00  0.2800E+00
     -6.671  0.0000E+00  0.2800E+00
     -6.489  0.0000E+00  0.2800E+00
     -6.306  0.0000E+00  0.2800E+00
     -6.124  0.0000E+00  0.2800E+00
     -5.942  0.0000E+00  0.2800E+00
     -5.759  0.0000E+00  0.2800E+00
     -5.577  0.0000E+00  0.2800E+00
     -5.395  0.3766E-01  0.2840E+00
     -5.212  0.4141E-01  0.2981E+00
     -5.030  0.0000E+00  0.3200E+00
     -4.848  0.0000E+00  0.3200E+00
     -4.665  0.0000E+00  0.3200E+00
     -4.483  0.0000E+00  0.3200E+00
     -4.301  0.0000E+00  0.3200E+00
     -4.118  0.0000E+00  0.3200E+00
     -3.936  0.0000E+00  0.3200E+00
     -3.754  0.0000E+00  0.3200E+00
     -3.571  0.0000E+00  0.3200E+00
     -3.389  0.0000E+00  0.3200E+00
     -3.207  0.0000E+00  0.3200E+00
     -3.024  0.0000E+00  0.3200E+00
     -2.842  0.0000E+00  0.3200E+00
     -2.660  0.0000E+00  0.3200E+00
     -2.477  0.1490E+00  0.3385E+00
     -2.295  0.1289E+00  0.3710E+00
     -2.113  0.1702E+00  0.4096E+00
     -1.930  0.0000E+00  0.4400E+00
     -1.748  0.0000E+00  0.4400E+00
     -1.566  0.0000E+00  0.4400E+00
     -1.383  0.0000E+00  0.4400E+00
     -1.201  0.0000E+00  0.4400E+00
     -1.018  0.0000E+00  0.4400E+00
     -0.836  0.0000E+00  0.4400E+00
     -0.654  0.0000E+00  0.4400E+00
     -0.471  0.0000E+00  0.4400E+00
     -0.289  0.3921E-01  0.4411E+00
     -0.107  0.1417E+00  0.4703E+00
      0.076  0.1405E+00  0.4992E+00
      0.258  0.3613E-01  0.5196E+00
      0.440  0.9169E-01  0.5318E+00
      0.623  0.5068E-01  0.5504E+00
      0.805  0.6048E-01  0.5615E+00
      0.987  0.1320E+00  0.5896E+00
      1.170  0.9998E-01  0.6163E+00
      1.352  0.8485E-01  0.6364E+00
      1.534  0.1529E+00  0.6546E+00
      1.717  0.1119E+00  0.6793E+00
      1.899  0.1934E+00  0.7186E+00
      2.081  0.2272E+00  0.7501E+00
      2.264  0.0000E+00  0.7600E+00
      2.446  0.0000E+00  0.7600E+00
      2.628  0.0000E+00  0.7600E+00
      2.811  0.0000E+00  0.7600E+00
      2.993  0.0000E+00  0.7600E+00
      3.175  0.0000E+00  0.7600E+00
      3.358  0.0000E+00  0.7600E+00
      3.540  0.0000E+00  0.7600E+00
      3.722  0.0000E+00  0.7600E+00
      3.905  0.0000E+00  0.7600E+00
      4.087  0.0000E+00  0.7600E+00
      4.269  0.0000E+00  0.7600E+00
      4.452  0.0000E+00  0.7600E+00
      4.634  0.0000E+00  0.7600E+00
      4.817  0.0000E+00  0.7600E+00
      4.999  0.0000E+00  0.7600E+00
      5.181  0.2438E-01  0.7647E+00
      5.364  0.3891E-01  0.7705E+00
      5.546  0.4696E-01  0.7811E+00
      5.728  0.3648E-01  0.7900E+00
      5.911  0.2319E-01  0.7978E+00
      6.093  0.1224E-01  0.8008E+00
      6.275  0.3103E-01  0.8051E+00
      6.458  0.1302E+00  0.8185E+00
      6.640  0.9538E-01  0.8437E+00
      6.822  0.1154E+00  0.8612E+00
      7.005  0.1060E+00  0.8854E+00
      7.187  0.8811E-01  0.9088E+00
      7.369  0.0000E+00  0.9200E+00
      7.552  0.0000E+00  0.9200E+00
      7.734  0.0000E+00  0.9200E+00
      7.916  0.0000E+00  0.9200E+00
      8.099  0.1618E-01  0.9210E+00
      8.281  0.4090E-01  0.9345E+00
      8.463  0.8818E-01  0.9443E+00
      8.646  0.2057E-01  0.9587E+00
      8.828  0.0000E+00  0.9600E+00
      9.010  0.0000E+00  0.9600E+00
      9.193  0.0000E+00  0.9600E+00
      9.375  0.0000E+00  0.9600E+00
      9.557  0.0000E+00  0.9600E+00
      9.740  0.0000E+00  0.9600E+00
      9.922  0.0000E+00  0.9600E+00
     10.104  0.0000E+00  0.9600E+00
     10.287  0.0000E+00  0.9600E+00
     10.469  0.0000E+00  0.9600E+00
     10.652  0.0000E+00  0.9600E+00
     10.834  0.0000E+00  0.9600E+00
     11.016  0.0000E+00  0.9600E+00
     11.199  0.0000E+00  0.9600E+00
