       N       E                     dE             d eps       ncg     rms          rms(c)
DAV:   1     0.497678954138E+03    0.49768E+03   -0.28754E+04   784   0.131E+03
DAV:   2    -0.110623481763E+02   -0.50874E+03   -0.48644E+03   896   0.307E+02
DAV:   3    -0.723870007047E+02   -0.61325E+02   -0.60823E+02  1056   0.966E+01
DAV:   4    -0.793842579660E+02   -0.69973E+01   -0.69768E+01  1416   0.313E+01
DAV:   5    -0.802050908045E+02   -0.82083E+00   -0.82068E+00  1120   0.728E+00    0.217E+01
RMM:   6    -0.778932059124E+02    0.23119E+01   -0.69977E+00   799   0.607E+00    0.147E+01
RMM:   7    -0.774758509670E+02    0.41735E+00   -0.20016E+00   845   0.369E+00    0.504E+00
RMM:   8    -0.774116350502E+02    0.64216E-01   -0.23600E-01   893   0.144E+00    0.484E-01
RMM:   9    -0.774063241915E+02    0.53109E-02   -0.25075E-02  1022   0.477E-01    0.281E-01
RMM:  10    -0.774068960411E+02   -0.57185E-03   -0.69379E-03  1072   0.201E-01    0.112E-01
RMM:  11    -0.774070876708E+02   -0.19163E-03   -0.23761E-03  1063   0.109E-01    0.205E-02
RMM:  12    -0.774071637545E+02   -0.76084E-04   -0.95409E-04   920   0.664E-02    0.128E-02
RMM:  13    -0.774071868011E+02   -0.23047E-04   -0.30366E-04   625   0.450E-02    0.771E-03
RMM:  14    -0.774071921001E+02   -0.52990E-05   -0.93071E-05   647   0.387E-02
   1 F= -.77407192E+02 E0= -.77407192E+02  d E =-.774072E+02
       N       E                     dE             d eps       ncg     rms          rms(c)
DAV:   1    -0.774083887316E+02   -0.12019E-02   -0.37547E-01   896   0.303E+00    0.204E-01
RMM:   2    -0.774095561678E+02   -0.11674E-02   -0.12516E-02   991   0.492E-01    0.524E-02
RMM:   3    -0.774095617849E+02   -0.56171E-05   -0.14009E-03  1179   0.157E-01    0.554E-02
RMM:   4    -0.774095509257E+02    0.10859E-04   -0.62652E-04  1055   0.745E-02    0.166E-02
RMM:   5    -0.774095449778E+02    0.59479E-05    0.15873E-05   487   0.442E-02
   2 F= -.77409545E+02 E0= -.77409545E+02  d E =-.235288E-02
       N       E                     dE             d eps       ncg     rms          rms(c)
DAV:   1    -0.774064268415E+02    0.31241E-02   -0.14692E+00   832   0.600E+00    0.404E-01
RMM:   2    -0.774109992717E+02   -0.45724E-02   -0.49014E-02   988   0.978E-01    0.106E-01
RMM:   3    -0.774110952456E+02   -0.95974E-04   -0.61906E-03  1231   0.322E-01    0.112E-01
RMM:   4    -0.774110695050E+02    0.25741E-04   -0.26723E-03  1129   0.147E-01    0.353E-02
RMM:   5    -0.774111432013E+02   -0.73696E-04   -0.87677E-04  1059   0.857E-02    0.251E-02
RMM:   6    -0.774111415628E+02    0.16385E-05   -0.64942E-05   636   0.546E-02
   3 F= -.77411142E+02 E0= -.77411142E+02  d E =-.394946E-02
       N       E                     dE             d eps       ncg     rms          rms(c)
DAV:   1    -0.774099104315E+02    0.12328E-02   -0.31206E-01   864   0.277E+00    0.519E-01
RMM:   2    -0.774111994605E+02   -0.12890E-02   -0.16232E-02   982   0.550E-01    0.939E-02
RMM:   3    -0.774110187815E+02    0.18068E-03   -0.17455E-03  1181   0.174E-01    0.640E-02
RMM:   4    -0.774109786530E+02    0.40128E-04   -0.87461E-04  1089   0.950E-02    0.182E-02
RMM:   5    -0.774109825115E+02   -0.38585E-05   -0.13537E-04   708   0.538E-02
   4 F= -.77410983E+02 E0= -.77410983E+02  d E =0.159051E-03
       N       E                     dE             d eps       ncg     rms          rms(c)
DAV:   1    -0.774112946105E+02   -0.31596E-03   -0.92453E-02   872   0.151E+00    0.287E-01
RMM:   2    -0.774116722807E+02   -0.37767E-03   -0.47995E-03   942   0.290E-01    0.485E-02
RMM:   3    -0.774115551956E+02    0.11709E-03   -0.24636E-04  1025   0.753E-02    0.321E-02
RMM:   4    -0.774115352725E+02    0.19923E-04   -0.14342E-04   885   0.394E-02
   5 F= -.77411535E+02 E0= -.77411535E+02  d E =-.393710E-03
       N       E                     dE             d eps       ncg     rms          rms(c)
DAV:   1    -0.774117227028E+02   -0.16751E-03   -0.20215E-02   880   0.603E-01    0.790E-02
RMM:   2    -0.774118110976E+02   -0.88395E-04   -0.11891E-03   865   0.133E-01    0.304E-02
RMM:   3    -0.774117844625E+02    0.26635E-04   -0.51929E-05   524   0.316E-02    0.257E-02
RMM:   4    -0.774117810549E+02    0.34075E-05   -0.18143E-05   466   0.164E-02
   6 F= -.77411781E+02 E0= -.77411781E+02  d E =-.245782E-03
       N       E                     dE             d eps       ncg     rms          rms(c)
DAV:   1    -0.774117951665E+02   -0.10704E-04   -0.24441E-02   832   0.665E-01    0.855E-02
RMM:   2    -0.774118949592E+02   -0.99793E-04   -0.13696E-03   906   0.148E-01    0.342E-02
RMM:   3    -0.774118742848E+02    0.20674E-04   -0.73496E-05   636   0.370E-02    0.296E-02
RMM:   4    -0.774118694675E+02    0.48173E-05   -0.19253E-05   475   0.202E-02
   7 F= -.77411869E+02 E0= -.77411869E+02  d E =-.334195E-03
       N       E                     dE             d eps       ncg     rms          rms(c)
DAV:   1    -0.774118477765E+02    0.26508E-04   -0.22059E-02   864   0.624E-01    0.109E-01
RMM:   2    -0.774119301414E+02   -0.82365E-04   -0.13508E-03   956   0.154E-01    0.327E-02
RMM:   3    -0.774119184576E+02    0.11684E-04   -0.11956E-04   826   0.447E-02
   8 F= -.77411918E+02 E0= -.77411918E+02  d E =-.489901E-04
       N       E                     dE             d eps       ncg     rms          rms(c)
DAV:   1    -0.774119229065E+02    0.72350E-05   -0.19541E-03   896   0.182E-01    0.360E-02
RMM:   2    -0.774119322726E+02   -0.93661E-05   -0.13048E-04   723   0.456E-02
   9 F= -.77411932E+02 E0= -.77411932E+02  d E =-.628051E-04
