 vasp.5.4.4.18Apr17-6-g9f103f2a35 (build Feb 28 2020 14:15:47) complex          
  
 executed on             LinuxIFC date 2022.04.28  04:14:49
 running on   64 total cores
 distrk:  each k-point on   64 cores,    1 groups
 distr:  one band on NCORES_PER_BAND=  16 cores,    4 groups


--------------------------------------------------------------------------------------------------------


 INCAR:
 POTCAR:    PAW P 26Mar2009                       
 POTCAR:    PAW S 27Mar2009                       
 POTCAR:    PAW Li_sv 10Sep2004                   
 POTCAR:    PAW P 26Mar2009                       
   VRHFIN =P : s2p3                                                             
   LEXCH  = CA                                                                  
   EATOM  =   176.5121 eV,   12.9733 Ry                                         
                                                                                
   TITEL  = PAW P 26Mar2009                                                     
   LULTRA =        F    use ultrasoft PP ?                                      
   IUNSCR =        1    unscreen: 0-lin 1-nonlin 2-no                           
   RPACOR =    1.500    partial core radius                                     
   POMASS =   30.974; ZVAL   =    5.000    mass and valenz                      
   RCORE  =    1.900    outmost cutoff radius                                   
   RWIGS  =    2.330; RWIGS  =    1.233    wigner-seitz radius (au A)           
   ENMAX  =  255.155; ENMIN  =  191.366 eV                                      
   ICORE  =        2    local potential                                         
   LCOR   =        T    correct aug charges                                     
   LPAW   =        T    paw PP                                                  
   EAUG   =  342.924                                                            
   DEXC   =    0.000                                                            
   RMAX   =    1.935    core radius for proj-oper                               
   RAUG   =    1.300    factor for augmentation sphere                          
   RDEP   =    1.931    radius for radial grids                                 
   RDEPT  =    1.780    core radius for aug-charge                              
                                                                                
   Atomic configuration                                                         
    6 entries                                                                   
     n  l   j            E        occ.                                          
     1  0  0.50     -2072.7761   2.0000                                         
     2  0  0.50      -172.9483   2.0000                                         
     2  1  1.50      -124.4644   6.0000                                         
     3  0  0.50       -14.0086   2.0000                                         
     3  1  0.50        -5.6037   3.0000                                         
     3  2  1.50        -6.8029   0.0000                                         
   Description                                                                  
     l       E           TYP  RCUT    TYP  RCUT                                 
     0    -14.0086211     23  1.900                                             
     0    -11.8189335     23  1.900                                             
     1     -5.6037292     23  1.900                                             
     1     -0.3527308     23  1.900                                             
     2     -6.8029130     23  1.900                                             
  local pseudopotential read in
  partial core-charges read in
  partial kinetic energy density read in
  atomic valenz-charges read in
  non local Contribution for L=           0  read in
    real space projection operators read in
  non local Contribution for L=           0  read in
    real space projection operators read in
  non local Contribution for L=           1  read in
    real space projection operators read in
  non local Contribution for L=           1  read in
    real space projection operators read in
    PAW grid and wavefunctions read in
 
   number of l-projection  operators is LMAX  =           4
   number of lm-projection operators is LMMAX =           8
 
 POTCAR:    PAW S 27Mar2009                       
   VRHFIN =S : s2p4                                                             
   LEXCH  = CA                                                                  
   EATOM  =   277.3745 eV,   20.3864 Ry                                         
                                                                                
   TITEL  = PAW S 27Mar2009                                                     
   LULTRA =        F    use ultrasoft PP ?                                      
   IUNSCR =        1    unscreen: 0-lin 1-nonlin 2-no                           
   RPACOR =    1.500    partial core radius                                     
   POMASS =   32.066; ZVAL   =    6.000    mass and valenz                      
   RCORE  =    1.900    outmost cutoff radius                                   
   RWIGS  =    2.200; RWIGS  =    1.164    wigner-seitz radius (au A)           
   ENMAX  =  258.602; ENMIN  =  193.952 eV                                      
   ICORE  =        2    local potential                                         
   LCOR   =        T    correct aug charges                                     
   LPAW   =        T    paw PP                                                  
   EAUG   =  335.092                                                            
   DEXC   =    0.000                                                            
   RMAX   =    1.942    core radius for proj-oper                               
   RAUG   =    1.300    factor for augmentation sphere                          
   RDEP   =    1.954    radius for radial grids                                 
   RDEPT  =    1.744    core radius for aug-charge                              
                                                                                
   Atomic configuration                                                         
    6 entries                                                                   
     n  l   j            E        occ.                                          
     1  0  0.50     -2393.1495   2.0000                                         
     2  0  0.50      -210.5411   2.0000                                         
     2  1  1.50      -156.4410   6.0000                                         
     3  0  0.50       -17.2664   2.0000                                         
     3  1  0.50        -7.1129   4.0000                                         
     3  2  1.50        -8.1635   0.0000                                         
   Description                                                                  
     l       E           TYP  RCUT    TYP  RCUT                                 
     0    -17.2664422     23  1.900                                             
     0    -15.8420823     23  1.900                                             
     1     -7.1129072     23  1.900                                             
     1     -2.8398274     23  1.900                                             
     2     -8.1634956     23  1.900                                             
  local pseudopotential read in
  partial core-charges read in
  partial kinetic energy density read in
  atomic valenz-charges read in
  non local Contribution for L=           0  read in
    real space projection operators read in
  non local Contribution for L=           0  read in
    real space projection operators read in
  non local Contribution for L=           1  read in
    real space projection operators read in
  non local Contribution for L=           1  read in
    real space projection operators read in
    PAW grid and wavefunctions read in
 
   number of l-projection  operators is LMAX  =           4
   number of lm-projection operators is LMMAX =           8
 
 POTCAR:    PAW Li_sv 10Sep2004                   
   VRHFIN =Li: 1s2s                                                             
   LEXCH  = CA                                                                  
   EATOM  =   199.5738 eV,   14.6683 Ry                                         
                                                                                
   TITEL  = PAW Li_sv 10Sep2004                                                 
   LULTRA =        F    use ultrasoft PP ?                                      
   IUNSCR =        0    unscreen: 0-lin 1-nonlin 2-no                           
   RPACOR =    0.000    partial core radius                                     
   POMASS =    7.010; ZVAL   =    3.000    mass and valenz                      
   RCORE  =    1.700    outmost cutoff radius                                   
   RWIGS  =    2.050; RWIGS  =    1.085    wigner-seitz radius (au A)           
   ENMAX  =  498.387; ENMIN  =  373.790 eV                                      
   ICORE  =        2    local potential                                         
   LCOR   =        T    correct aug charges                                     
   LPAW   =        T    paw PP                                                  
   EAUG   =  628.945                                                            
   RMAX   =    1.732    core radius for proj-oper                               
   RAUG   =    1.300    factor for augmentation sphere                          
   RDEP   =    1.728    radius for radial grids                                 
   RDEPT  =    1.329    core radius for aug-charge                              
                                                                                
   Atomic configuration                                                         
    4 entries                                                                   
     n  l   j            E        occ.                                          
     1  0  0.50       -51.0884   2.0000                                         
     2  0  0.50        -2.8766   1.0000                                         
     2  1  0.50        -2.8708   0.0000                                         
     3  2  1.50        -1.3606   0.0000                                         
   Description                                                                  
     l       E           TYP  RCUT    TYP  RCUT                                 
     0    -51.0884324     23  1.400                                             
     0     -2.8766458     23  1.700                                             
     1     -2.8708293     23  1.400                                             
     2     -1.3605826     23  1.400                                             
  local pseudopotential read in
  atomic valenz-charges read in
  non local Contribution for L=           0  read in
    real space projection operators read in
  non local Contribution for L=           0  read in
    real space projection operators read in
  non local Contribution for L=           1  read in
    real space projection operators read in
    PAW grid and wavefunctions read in
 
   number of l-projection  operators is LMAX  =           3
   number of lm-projection operators is LMMAX =           5
 
 Optimization of the real space projectors (new method)

 maximal supplied QI-value         = 19.84
 optimisation between [QCUT,QGAM] = [ 10.32, 20.83] = [ 29.81,121.55] Ry 
 Optimized for a Real-space Cutoff    1.39 Angstroem

   l    n(q)    QCUT    max X(q) W(low)/X(q) W(high)/X(q)  e(spline) 
   0      9    10.318   158.476    0.64E-04    0.80E-04    0.60E-07
   0      9    10.318   128.097    0.63E-04    0.79E-04    0.60E-07
   1      8    10.318    73.217    0.18E-03    0.19E-03    0.20E-06
   1      8    10.318    48.248    0.18E-03    0.19E-03    0.19E-06
 Optimization of the real space projectors (new method)

 maximal supplied QI-value         = 19.84
 optimisation between [QCUT,QGAM] = [ 10.32, 20.83] = [ 29.81,121.55] Ry 
 Optimized for a Real-space Cutoff    1.39 Angstroem

   l    n(q)    QCUT    max X(q) W(low)/X(q) W(high)/X(q)  e(spline) 
   0      9    10.318   180.455    0.73E-04    0.81E-04    0.62E-07
   0      9    10.318   157.733    0.72E-04    0.81E-04    0.62E-07
   1      8    10.318    66.201    0.18E-03    0.20E-03    0.20E-06
   1      8    10.318    49.617    0.18E-03    0.20E-03    0.20E-06
 Optimization of the real space projectors (new method)

 maximal supplied QI-value         = 22.11
 optimisation between [QCUT,QGAM] = [ 10.39, 20.78] = [ 30.24,120.96] Ry 
 Optimized for a Real-space Cutoff    1.20 Angstroem

   l    n(q)    QCUT    max X(q) W(low)/X(q) W(high)/X(q)  e(spline) 
   0      7    10.392    10.443    0.77E-04    0.41E-05    0.30E-07
   0      7    10.392     8.514    0.20E-03    0.36E-04    0.67E-07
   1      7    10.392     5.406    0.20E-03    0.20E-03    0.12E-06
  PAW P 26Mar2009                       :
 energy of atom  1       EATOM= -176.5121
 kinetic energy error for atom=    0.0021 (will be added to EATOM!!)
  PAW S 27Mar2009                       :
 energy of atom  2       EATOM= -277.3745
 kinetic energy error for atom=    0.0041 (will be added to EATOM!!)
  PAW Li_sv 10Sep2004                   :
 energy of atom  3       EATOM= -199.5738
 kinetic energy error for atom=    0.0564 (will be added to EATOM!!)
 
 
 POSCAR: Good luck                               
  positions in cartesian coordinates
  No initial velocities read in
 exchange correlation table for  LEXCH =        2
   RHO(1)=    0.500       N(1)  =     2000
   RHO(2)=  100.500       N(2)  =     4000
 


--------------------------------------------------------------------------------------------------------


 ion  position               nearest neighbor table
   1  0.000  0.681  0.406-   7 2.00   9 2.00   3 2.00   6 2.00
   2  0.500  0.319  0.906-   8 2.00  10 2.00   4 2.00   5 2.00
   3  0.217  0.827  0.292-   1 2.00  14 2.34  13 2.39  12 2.48
   4  0.283  0.173  0.792-   2 2.00  13 2.34  14 2.39  11 2.48
   5  0.717  0.173  0.792-   2 2.00  16 2.34  15 2.39  11 2.48
   6  0.783  0.827  0.292-   1 2.00  15 2.34  16 2.39  12 2.48
   7  0.000  0.687  0.739-   1 2.00  15 2.33  14 2.33  11 2.35
   8  0.500  0.313  0.239-   2 2.00  13 2.33  16 2.33  12 2.35
   9  0.000  0.384  0.301-   1 2.00  13 2.32  16 2.32  11 2.46
  10  0.500  0.616  0.801-   2 2.00  14 2.32  15 2.32  12 2.46
  11  1.000  0.348  0.893-   7 2.35   9 2.46   5 2.48   4 2.48
  12  0.500  0.652  0.393-   8 2.35  10 2.46   6 2.48   3 2.48
  13  0.243  0.184  0.406-   9 2.32   8 2.33   4 2.34   3 2.39
  14  0.257  0.816  0.906-  10 2.32   7 2.33   3 2.34   4 2.39
  15  0.743  0.816  0.906-  10 2.32   7 2.33   6 2.34   5 2.39
  16  0.757  0.184  0.406-   9 2.32   8 2.33   5 2.34   6 2.39
 
  LATTYP: Found a simple orthorhombic cell.
 ALAT       =     6.0079161842
 B/A-ratio  =     1.0625987554
 C/A-ratio  =     1.2510382633
  
  Lattice vectors:
  
 A1 = (  -0.0000032331,   0.0000002110,  -6.0079161842)
 A2 = (  -0.0000529934,  -6.3840042598,   0.0000002233)
 A3 = (  -7.5161330290,   0.0000558288,  -0.0000040424)


Analysis of symmetry for initial positions (statically):
=====================================================================
 Subroutine PRICEL returns:
 Original cell was already a primitive cell.
 

 Routine SETGRP: Setting up the symmetry group for a 
 simple orthorhombic supercell.


 Subroutine GETGRP returns: Found  3 space group operations
 (whereof  1 operations were pure point group operations)
 out of a pool of  8 trial point group operations.


The static configuration has the point symmetry C_1 .
 The point group associated with its full space group is C_3 .


Analysis of symmetry for dynamics (positions and initial velocities):
=====================================================================
 Subroutine PRICEL returns:
 Original cell was already a primitive cell.
 

 Routine SETGRP: Setting up the symmetry group for a 
 simple orthorhombic supercell.


 Subroutine GETGRP returns: Found  3 space group operations
 (whereof  1 operations were pure point group operations)
 out of a pool of  8 trial point group operations.


The dynamic configuration has the point symmetry C_1 .
 The point group associated with its full space group is C_3 .


 Subroutine INISYM returns: Found  3 space group operations
 (whereof  1 operations are pure point group operations),
 and found     1 'primitive' translations

 
 
 KPOINTS: Automatic mesh                          

Automatic generation of k-mesh.
Space group operators:
 irot       det(A)        alpha          n_x          n_y          n_z        tau_x        tau_y        tau_z
    1     1.000000     0.000000     1.000000     0.000000     0.000000     0.000000     0.000000     0.000000
    2    -1.000000   180.000000     0.000007     1.000000     0.000000    -0.500000    -0.000000    -0.500000
    3     1.000000   180.000000    -0.000001     0.000000     1.000000    -0.500000    -0.000000    -0.500000
 
 Subroutine IBZKPT returns following result:
 ===========================================
 
 Found     16 irreducible k-points:
 
 Following reciprocal coordinates:
            Coordinates               Weight
  0.125000  0.125000  0.125000      4.000000
  0.375000  0.125000  0.125000      4.000000
 -0.375000  0.125000  0.125000      4.000000
 -0.125000  0.125000  0.125000      4.000000
  0.125000  0.375000  0.125000      4.000000
  0.375000  0.375000  0.125000      4.000000
 -0.375000  0.375000  0.125000      4.000000
 -0.125000  0.375000  0.125000      4.000000
  0.125000  0.125000  0.375000      4.000000
  0.375000  0.125000  0.375000      4.000000
 -0.375000  0.125000  0.375000      4.000000
 -0.125000  0.125000  0.375000      4.000000
  0.125000  0.375000  0.375000      4.000000
  0.375000  0.375000  0.375000      4.000000
 -0.375000  0.375000  0.375000      4.000000
 -0.125000  0.375000  0.375000      4.000000
 
 Following cartesian coordinates:
            Coordinates               Weight
  0.016631  0.019580  0.020806      4.000000
  0.049893  0.019580  0.020806      4.000000
 -0.049893  0.019581  0.020806      4.000000
 -0.016631  0.019580  0.020806      4.000000
  0.016631  0.058740  0.020806      4.000000
  0.049893  0.058740  0.020806      4.000000
 -0.049892  0.058741  0.020806      4.000000
 -0.016630  0.058741  0.020806      4.000000
  0.016631  0.019580  0.062418      4.000000
  0.049893  0.019580  0.062418      4.000000
 -0.049893  0.019581  0.062418      4.000000
 -0.016631  0.019580  0.062418      4.000000
  0.016631  0.058740  0.062418      4.000000
  0.049893  0.058740  0.062418      4.000000
 -0.049892  0.058741  0.062418      4.000000
 -0.016630  0.058741  0.062418      4.000000
 
 TETIRR: Found    172 inequivalent tetrahedra from      384


--------------------------------------------------------------------------------------------------------




 Dimension of arrays:
   k-points           NKPTS =     16   k-points in BZ     NKDIM =     16   number of bands    NBANDS=     48
   number of dos      NEDOS =    301   number of ions     NIONS =     16
   non local maximal  LDIM  =      4   non local SUM 2l+1 LMDIM =      8
   total plane-waves  NPLWV =  96000
   max r-space proj   IRMAX =   3777   max aug-charges    IRDMAX=  10690
   dimension x,y,z NGX =    50 NGY =   48 NGZ =   40
   dimension x,y,z NGXF=   100 NGYF=   96 NGZF=   80
   support grid    NGXF=   100 NGYF=   96 NGZF=   80
   ions per type =               2   8   6
   NGX,Y,Z   is equivalent  to a cutoff of  11.06, 12.50, 11.07 a.u.
   NGXF,Y,Z  is equivalent  to a cutoff of  22.12, 25.00, 22.14 a.u.

 SYSTEM =  unknown system                          
 POSCAR =  Good luck                               

 Startparameter for this run:
   NWRITE =      2    write-flag & timer
   PREC   = accura    normal or accurate (medium, high low for compatibility)
   ISTART =      0    job   : 0-new  1-cont  2-samecut
   ICHARG =      2    charge: 1-file 2-atom 10-const
   ISPIN  =      1    spin polarized calculation?
   LNONCOLLINEAR =      F non collinear calculations
   LSORBIT =      F    spin-orbit coupling
   INIWAV =      1    electr: 0-lowe 1-rand  2-diag
   LASPH  =      F    aspherical Exc in radial PAW
   METAGGA=      F    non-selfconsistent MetaGGA calc.

 Electronic Relaxation 1
   ENCUT  =  420.0 eV  30.87 Ry    5.56 a.u.  12.56 10.67 10.04*2*pi/ulx,y,z
   ENINI  =  420.0     initial cutoff
   ENAUG  =  628.9 eV  augmentation charge cutoff
   NELM   =    100;   NELMIN=  2; NELMDL= -5     # of ELM steps 
   EDIFF  = 0.2E-04   stopping-criterion for ELM
   LREAL  =      T    real-space projection
   NLSPLINE    = F    spline interpolate recip. space projectors
   LCOMPAT=      F    compatible to vasp.4.4
   GGA_COMPAT  = T    GGA compatible to vasp.4.4-vasp.4.6
   LMAXPAW     = -100 max onsite density
   LMAXMIX     =    2 max onsite mixed and CHGCAR
   VOSKOWN=      0    Vosko Wilk Nusair interpolation
   ROPT   =   -0.00025  -0.00025  -0.00025
 Ionic relaxation
   EDIFFG = 0.2E-03   stopping-criterion for IOM
   NSW    =    100    number of steps for IOM
   NBLOCK =      1;   KBLOCK =    100    inner block; outer block 
   IBRION =      2    ionic relax: 0-MD 1-quasi-New 2-CG
   NFREE  =      1    steps in history (QN), initial steepest desc. (CG)
   ISIF   =      3    stress and relaxation
   IWAVPR =     11    prediction:  0-non 1-charg 2-wave 3-comb
   ISYM   =      2    0-nonsym 1-usesym 2-fastsym
   LCORR  =      T    Harris-Foulkes like correction to forces

   POTIM  = 0.5000    time-step for ionic-motion
   TEIN   =    0.0    initial temperature
   TEBEG  =    0.0;   TEEND  =   0.0 temperature during run
   SMASS  =  -3.00    Nose mass-parameter (am)
   estimated Nose-frequenzy (Omega)   =  0.10E-29 period in steps =****** mass=  -0.129E-26a.u.
   SCALEE = 1.0000    scale energy and forces
   NPACO  =    256;   APACO  = 16.0  distance and # of slots for P.C.
   PSTRESS=    0.0 pullay stress

  Mass of Ions in am
   POMASS =  30.97 32.07  7.01
  Ionic Valenz
   ZVAL   =   5.00  6.00  3.00
  Atomic Wigner-Seitz radii
   RWIGS  =  -1.00 -1.00 -1.00
  virtual crystal weights 
   VCA    =   1.00  1.00  1.00
   NELECT =      76.0000    total number of electrons
   NUPDOWN=      -1.0000    fix difference up-down

 DOS related values:
   EMIN   =  10.00;   EMAX   =-10.00  energy-range for DOS
   EFERMI =   0.00
   ISMEAR =    -5;   SIGMA  =   0.20  broadening in eV -4-tet -1-fermi 0-gaus

 Electronic relaxation 2 (details)
   IALGO  =     68    algorithm
   LDIAG  =      T    sub-space diagonalisation (order eigenvalues)
   LSUBROT=      F    optimize rotation matrix (better conditioning)
   TURBO    =      0    0=normal 1=particle mesh
   IRESTART =      0    0=no restart 2=restart with 2 vectors
   NREBOOT  =      0    no. of reboots
   NMIN     =      0    reboot dimension
   EREF     =   0.00    reference energy to select bands
   IMIX   =      4    mixing-type and parameters
     AMIX     =   0.40;   BMIX     =  1.00
     AMIX_MAG =   1.60;   BMIX_MAG =  1.00
     AMIN     =   0.10
     WC   =   100.;   INIMIX=   1;  MIXPRE=   1;  MAXMIX= -45

 Intra band minimization:
   WEIMIN = 0.0010     energy-eigenvalue tresh-hold
   EBREAK =  0.10E-06  absolut break condition
   DEPER  =   0.30     relativ break condition  

   TIME   =   0.40     timestep for ELM

  volume/ion in A,a.u.               =      18.02       121.59
  Fermi-wavevector in a.u.,A,eV,Ry     =   1.049725  1.983693 14.992566  1.101923
  Thomas-Fermi vector in A             =   2.184699
 
 Write flags
   LWAVE        =      F    write WAVECAR
   LDOWNSAMPLE  =      F    k-point downsampling of WAVECAR
   LCHARG       =      F    write CHGCAR
   LVTOT        =      F    write LOCPOT, total local potential
   LVHAR        =      F    write LOCPOT, Hartree potential only
   LELF         =      F    write electronic localiz. function (ELF)
   LORBIT       =      0    0 simple, 1 ext, 2 COOP (PROOUT), +10 PAW based schemes


 Dipole corrections
   LMONO  =      F    monopole corrections only (constant potential shift)
   LDIPOL =      F    correct potential (dipole corrections)
   IDIPOL =      0    1-x, 2-y, 3-z, 4-all directions 
   EPSILON=  1.0000000 bulk dielectric constant

 Exchange correlation treatment:
   GGA     =    --    GGA type
   LEXCH   =     2    internal setting for exchange type
   VOSKOWN=      0    Vosko Wilk Nusair interpolation
   LHFCALC =     F    Hartree Fock is set to
   LHFONE  =     F    Hartree Fock one center treatment
   AEXX    =    0.0000 exact exchange contribution

 Linear response parameters
   LEPSILON=     F    determine dielectric tensor
   LRPA    =     F    only Hartree local field effects (RPA)
   LNABLA  =     F    use nabla operator in PAW spheres
   LVEL    =     F    velocity operator in full k-point grid
   LINTERFAST=   F  fast interpolation
   KINTER  =     0    interpolate to denser k-point grid
   CSHIFT  =0.1000    complex shift for real part using Kramers Kronig
   OMEGAMAX=  -1.0    maximum frequency
   DEG_THRESHOLD= 0.2000000E-02 threshold for treating states as degnerate
   RTIME   =   -0.100 relaxation time in fs
  (WPLASMAI=    0.000 imaginary part of plasma frequency in eV, 0.658/RTIME)
   DFIELD  = 0.0000000 0.0000000 0.0000000 field for delta impulse in time
 
 Orbital magnetization related:
   ORBITALMAG=     F  switch on orbital magnetization
   LCHIMAG   =     F  perturbation theory with respect to B field
   DQ        =  0.001000  dq finite difference perturbation B field
   LLRAUG    =     F  two centre corrections for induced B field



--------------------------------------------------------------------------------------------------------


 conjugate gradient relaxation of ions
 charge density and potential will be updated during run
 non-spin polarized calculation
 RMM-DIIS sequential band-by-band and
  variant of blocked Davidson during initial phase
 perform sub-space diagonalisation
    before iterative eigenvector-optimisation
 modified Broyden-mixing scheme, WC =      100.0
 initial mixing is a Kerker type mixing with AMIX =  0.4000 and BMIX =      1.0000
 Hartree-type preconditioning will be used
 using additional bands           10
 real space projection scheme for non local part
 use partial core corrections
 calculate Harris-corrections to forces 
   (improved forces if not selfconsistent)
 use of overlap-Matrix (Vanderbilt PP)
 Fermi weights with tetrahedron method with Bloechl corrections


--------------------------------------------------------------------------------------------------------


  energy-cutoff  :      420.00
  volume of cell :      288.28
      direct lattice vectors                 reciprocal lattice vectors
     7.516133029 -0.000055829  0.000004042     0.133047140 -0.000001104 -0.000000072
     0.000052993  6.384004260 -0.000000223     0.000001164  0.156641499  0.000000006
     0.000003233 -0.000000211  6.007916184    -0.000000090  0.000000006  0.166447062

  length of vectors
     7.516133029  6.384004260  6.007916184     0.133047140  0.156641499  0.166447062


 
 k-points in units of 2pi/SCALE and weight: Automatic mesh                          
   0.01663103  0.01958005  0.02080587       0.062
   0.04989281  0.01957977  0.02080586       0.062
  -0.04989254  0.01958060  0.02080591       0.062
  -0.01663076  0.01958033  0.02080589       0.062
   0.01663132  0.05874042  0.02080588       0.062
   0.04989310  0.05874015  0.02080586       0.062
  -0.04989225  0.05874098  0.02080591       0.062
  -0.01663047  0.05874070  0.02080589       0.062
   0.01663100  0.01958005  0.06241764       0.062
   0.04989279  0.01957978  0.06241762       0.062
  -0.04989257  0.01958060  0.06241768       0.062
  -0.01663078  0.01958033  0.06241766       0.062
   0.01663130  0.05874043  0.06241764       0.062
   0.04989308  0.05874015  0.06241762       0.062
  -0.04989227  0.05874098  0.06241768       0.062
  -0.01663049  0.05874070  0.06241766       0.062
 
 k-points in reciprocal lattice and weights: Automatic mesh                          
   0.12500000  0.12500000  0.12500000       0.062
   0.37500000  0.12500000  0.12500000       0.062
  -0.37500000  0.12500000  0.12500000       0.062
  -0.12500000  0.12500000  0.12500000       0.062
   0.12500000  0.37500000  0.12500000       0.062
   0.37500000  0.37500000  0.12500000       0.062
  -0.37500000  0.37500000  0.12500000       0.062
  -0.12500000  0.37500000  0.12500000       0.062
   0.12500000  0.12500000  0.37500000       0.062
   0.37500000  0.12500000  0.37500000       0.062
  -0.37500000  0.12500000  0.37500000       0.062
  -0.12500000  0.12500000  0.37500000       0.062
   0.12500000  0.37500000  0.37500000       0.062
   0.37500000  0.37500000  0.37500000       0.062
  -0.37500000  0.37500000  0.37500000       0.062
  -0.12500000  0.37500000  0.37500000       0.062
 
 position of ions in fractional coordinates (direct lattice) 
   0.00000039  0.68126873  0.40576552
   0.49999961  0.31873127  0.90576552
   0.21726458  0.82699496  0.29191417
   0.28273542  0.17300504  0.79191417
   0.71726458  0.17300504  0.79191417
   0.78273542  0.82699496  0.29191417
   0.00000020  0.68706908  0.73860273
   0.49999980  0.31293092  0.23860273
   0.00000253  0.38401973  0.30063070
   0.49999747  0.61598027  0.80063070
   0.99999818  0.34843911  0.89314569
   0.50000182  0.65156089  0.39314569
   0.24262726  0.18379482  0.40598938
   0.25737274  0.81620518  0.90598938
   0.74262726  0.81620518  0.90598938
   0.75737274  0.18379482  0.40598938
 
 position of ions in cartesian coordinates  (Angst):
   0.00004033  4.34922239  2.43780505
   3.75808342  2.03475368  5.44176525
   1.63303426  5.27952715  1.75379654
   2.12508876  1.10444897  4.75775505
   5.39106773  1.10442471  4.75775680
   5.88318831  5.27949558  1.75379883
   0.00004033  4.38625175  4.43746316
   3.75808233  1.99772439  1.43350718
   0.00004033  2.45158353  1.80616396
   3.75808274  3.93239259  4.81012402
   7.51614067  2.22438076  5.36594842
   3.75811602  4.15953949  2.36198823
   1.82362984  1.17333326  2.43915109
   1.93449391  5.21064281  5.44310910
   5.58173148  5.21061572  5.44311106
   5.69252530  1.17330452  2.43915317
 


--------------------------------------------------------------------------------------------------------


 k-point  1 :   0.1250 0.1250 0.1250  plane waves:    5641
 k-point  2 :   0.3750 0.1250 0.1250  plane waves:    5632
 k-point  3 :  -0.3750 0.1250 0.1250  plane waves:    5632
 k-point  4 :  -0.1250 0.1250 0.1250  plane waves:    5641
 k-point  5 :   0.1250 0.3750 0.1250  plane waves:    5621
 k-point  6 :   0.3750 0.3750 0.1250  plane waves:    5626
 k-point  7 :  -0.3750 0.3750 0.1250  plane waves:    5626
 k-point  8 :  -0.1250 0.3750 0.1250  plane waves:    5621
 k-point  9 :   0.1250 0.1250 0.3750  plane waves:    5650
 k-point 10 :   0.3750 0.1250 0.3750  plane waves:    5628
 k-point 11 :  -0.3750 0.1250 0.3750  plane waves:    5628
 k-point 12 :  -0.1250 0.1250 0.3750  plane waves:    5650
 k-point 13 :   0.1250 0.3750 0.3750  plane waves:    5649
 k-point 14 :   0.3750 0.3750 0.3750  plane waves:    5636
 k-point 15 :  -0.3750 0.3750 0.3750  plane waves:    5636
 k-point 16 :  -0.1250 0.3750 0.3750  plane waves:    5649

 maximum and minimum number of plane-waves per node :       366      337

 maximum number of plane-waves:      5650
 maximum index in each direction: 
   IXMAX=   12   IYMAX=   10   IZMAX=    9
   IXMIN=  -12   IYMIN=  -11   IZMIN=  -10


 real space projection operators:
  total allocation   :       2796.41 KBytes
  max/ min on nodes  :        230.83        156.03


 parallel 3D FFT for wavefunctions:
    minimum data exchange during FFTs selected (reduces bandwidth)
 parallel 3D FFT for charge:
    minimum data exchange during FFTs selected (reduces bandwidth)


 total amount of memory used by VASP MPI-rank0    34474. kBytes
=======================================================================

   base      :      30000. kBytes
   nonlr-proj:       1297. kBytes
   fftplans  :        733. kBytes
   grid      :       1311. kBytes
   one-center:          3. kBytes
   wavefun   :       1130. kBytes
 
     INWAV:  cpu time    0.0000: real time    0.0000
 Broyden mixing: mesh for mixing (old mesh)
   NGX = 25   NGY = 21   NGZ = 21
  (NGX  =100   NGY  = 96   NGZ  = 80)
  gives a total of  11025 points

 initial charge density was supplied:
 charge density of overlapping atoms calculated
 number of electron      76.0000000 magnetization 
 keeping initial charge density in first step


--------------------------------------------------------------------------------------------------------


 Maximum index for non-local projection operator          579
 Maximum index for augmentation-charges          592 (set IRDMAX)


--------------------------------------------------------------------------------------------------------


 First call to EWALD:  gamma=   0.268
 Maximum number of real-space cells 2x 3x 3
 Maximum number of reciprocal cells 3x 3x 3

    FEWALD:  cpu time    0.0020: real time    0.0020


--------------------------------------- Iteration      1(   1)  ---------------------------------------


    POTLOK:  cpu time    0.0069: real time    0.0206
    SETDIJ:  cpu time    0.0042: real time    0.0055
     EDDAV:  cpu time    0.3780: real time    0.4114
 BZINTS: Fermi energy: 14.896043; 76.000000 electrons
         Band energy:-124.131363;  BLOECHL correction: -0.155692
       DOS:  cpu time    0.0129: real time    0.0136
    --------------------------------------------
      LOOP:  cpu time    0.4021: real time    0.4511

 eigenvalue-minimisations  :  1544
 total energy-change (2. order) : 0.5044016E+03  (-0.2863349E+04)
 number of electron      76.0000000 magnetization 
 augmentation part       76.0000000 magnetization 

 Free energy of the ion-electron system (eV)
  ---------------------------------------------------
  alpha Z        PSCENC =        68.45114304
  Ewald energy   TEWEN  =     -2710.42892618
  -Hartree energ DENC   =      -633.88219035
  -exchange      EXHF   =         0.00000000
  -V(xc)+E(xc)   XCENC  =       182.20284335
  PAW double counting   =      2494.22442938    -2541.12215007
  entropy T*S    EENTRO =         0.00000000
  eigenvalues    EBANDS =      -124.13136326
  atomic energy  EATOM  =      3769.08782378
  Solvation  Ediel_sol  =         0.00000000
  ---------------------------------------------------
  free energy    TOTEN  =       504.40160969 eV

  energy without entropy =      504.40160969  energy(sigma->0) =      504.40160969


--------------------------------------------------------------------------------------------------------




--------------------------------------- Iteration      1(   2)  ---------------------------------------


     EDDAV:  cpu time    0.3981: real time    0.4118
 BZINTS: Fermi energy:  4.645931; 76.000000 electrons
         Band energy:-640.036755;  BLOECHL correction:  0.000000
       DOS:  cpu time    0.0023: real time    0.0023
    --------------------------------------------
      LOOP:  cpu time    0.4004: real time    0.4141

 eigenvalue-minimisations  :  1824
 total energy-change (2. order) :-0.5159054E+03  (-0.4922347E+03)
 number of electron      76.0000000 magnetization 
 augmentation part       76.0000000 magnetization 

 Free energy of the ion-electron system (eV)
  ---------------------------------------------------
  alpha Z        PSCENC =        68.45114304
  Ewald energy   TEWEN  =     -2710.42892618
  -Hartree energ DENC   =      -633.88219035
  -exchange      EXHF   =         0.00000000
  -V(xc)+E(xc)   XCENC  =       182.20284335
  PAW double counting   =      2494.22442938    -2541.12215007
  entropy T*S    EENTRO =         0.00000000
  eigenvalues    EBANDS =      -640.03675517
  atomic energy  EATOM  =      3769.08782378
  Solvation  Ediel_sol  =         0.00000000
  ---------------------------------------------------
  free energy    TOTEN  =       -11.50378222 eV

  energy without entropy =      -11.50378222  energy(sigma->0) =      -11.50378222


--------------------------------------------------------------------------------------------------------




--------------------------------------- Iteration      1(   3)  ---------------------------------------


     EDDAV:  cpu time    0.4315: real time    0.4333
 BZINTS: Fermi energy:  1.608516; 76.000000 electrons
         Band energy:-700.675410;  BLOECHL correction:  0.000000
       DOS:  cpu time    0.0016: real time    0.0016
    --------------------------------------------
      LOOP:  cpu time    0.4331: real time    0.4349

 eigenvalue-minimisations  :  2112
 total energy-change (2. order) :-0.6063866E+02  (-0.6016573E+02)
 number of electron      76.0000000 magnetization 
 augmentation part       76.0000000 magnetization 

 Free energy of the ion-electron system (eV)
  ---------------------------------------------------
  alpha Z        PSCENC =        68.45114304
  Ewald energy   TEWEN  =     -2710.42892618
  -Hartree energ DENC   =      -633.88219035
  -exchange      EXHF   =         0.00000000
  -V(xc)+E(xc)   XCENC  =       182.20284335
  PAW double counting   =      2494.22442938    -2541.12215007
  entropy T*S    EENTRO =         0.00000000
  eigenvalues    EBANDS =      -700.67541026
  atomic energy  EATOM  =      3769.08782378
  Solvation  Ediel_sol  =         0.00000000
  ---------------------------------------------------
  free energy    TOTEN  =       -72.14243731 eV

  energy without entropy =      -72.14243731  energy(sigma->0) =      -72.14243731


--------------------------------------------------------------------------------------------------------




--------------------------------------- Iteration      1(   4)  ---------------------------------------


     EDDAV:  cpu time    0.5465: real time    0.5471
 BZINTS: Fermi energy:  1.501443; 76.000000 electrons
         Band energy:-707.611226;  BLOECHL correction:  0.000000
       DOS:  cpu time    0.0015: real time    0.0016
    --------------------------------------------
      LOOP:  cpu time    0.5481: real time    0.5486

 eigenvalue-minimisations  :  2840
 total energy-change (2. order) :-0.6935816E+01  (-0.6914980E+01)
 number of electron      76.0000000 magnetization 
 augmentation part       76.0000000 magnetization 

 Free energy of the ion-electron system (eV)
  ---------------------------------------------------
  alpha Z        PSCENC =        68.45114304
  Ewald energy   TEWEN  =     -2710.42892618
  -Hartree energ DENC   =      -633.88219035
  -exchange      EXHF   =         0.00000000
  -V(xc)+E(xc)   XCENC  =       182.20284335
  PAW double counting   =      2494.22442938    -2541.12215007
  entropy T*S    EENTRO =         0.00000000
  eigenvalues    EBANDS =      -707.61122618
  atomic energy  EATOM  =      3769.08782378
  Solvation  Ediel_sol  =         0.00000000
  ---------------------------------------------------
  free energy    TOTEN  =       -79.07825322 eV

  energy without entropy =      -79.07825322  energy(sigma->0) =      -79.07825322


--------------------------------------------------------------------------------------------------------




--------------------------------------- Iteration      1(   5)  ---------------------------------------


     EDDAV:  cpu time    0.4633: real time    0.4638
 BZINTS: Fermi energy:  1.482793; 76.000000 electrons
         Band energy:-708.459141;  BLOECHL correction:  0.000000
       DOS:  cpu time    0.0016: real time    0.0016
