<?xml version="1.0" encoding="ISO-8859-1"?>
<modeling>
 <generator>
  <i name="program" type="string">vasp </i>
  <i name="version" type="string">5.4.4.18Apr17-6-g9f103f2a35  </i>
  <i name="subversion" type="string">(build Feb 28 2020 14:15:47) complex            parallel </i>
  <i name="platform" type="string">LinuxIFC </i>
  <i name="date" type="string">2022 08 17 </i>
  <i name="time" type="string">22:49:35 </i>
 </generator>
 <incar>
  <i type="int" name="ISTART">     0</i>
  <i type="string" name="PREC">accurate</i>
  <i type="string" name="ALGO"> FAST</i>
  <i type="int" name="ISPIN">     1</i>
  <i type="int" name="ICHARG">     2</i>
  <i type="int" name="INIWAV">     1</i>
  <i type="int" name="NELM">   100</i>
  <i type="int" name="IBRION">     2</i>
  <i name="EDIFF">      0.00002000</i>
  <i name="EDIFFG">      0.00020000</i>
  <i type="int" name="NSW">   100</i>
  <i type="int" name="ISIF">     3</i>
  <i name="ENCUT">    420.00000000</i>
  <i type="string" name="LREAL"> AUTO</i>
  <i type="int" name="ISMEAR">    -5</i>
  <i type="logical" name="LWAVE"> F  </i>
  <i type="logical" name="LCHARG"> F  </i>
  <v type="int" name="KPOINT_BSE">    -1     0     0     0</v>
  <i type="int" name="NELM">   100</i>
 </incar>
 <structure name="primitive_cell" >
  <crystal>
   <varray name="basis" >
    <v>       7.48046125       0.00000000       0.00000000 </v>
    <v>       0.00000000       6.41052680       0.00000000 </v>
    <v>       0.00000000       0.00000000       6.01221092 </v>
   </varray>
   <i name="volume">    288.30774293 </i>
   <varray name="rec_basis" >
    <v>       0.13368160       0.00000000       0.00000000 </v>
    <v>       0.00000000       0.15599342       0.00000000 </v>
    <v>       0.00000000       0.00000000       0.16632816 </v>
   </varray>
  </crystal>
  <varray name="positions" >
   <v>       0.00000000       0.31373713       0.28194577 </v>
   <v>       0.00000000      -0.38937459       0.16388350 </v>
   <v>       0.22305181       0.16347448       0.17240902 </v>
   <v>      -0.22305181       0.16347448       0.17240902 </v>
   <v>       0.00000000       0.30925704      -0.37919499 </v>
   <v>       0.00000000      -0.34802062      -0.23234556 </v>
   <v>       0.25758745       0.18584183      -0.21637420 </v>
   <v>      -0.25758745       0.18584183      -0.21637420 </v>
   <v>       0.24241255      -0.18584183       0.28362580 </v>
   <v>      -0.24241255      -0.18584183       0.28362580 </v>
   <v>       0.50000000       0.34802062       0.26765444 </v>
   <v>       0.27694819      -0.16347448      -0.32759098 </v>
   <v>      -0.27694819      -0.16347448      -0.32759098 </v>
   <v>       0.50000000       0.38937459      -0.33611650 </v>
   <v>       0.50000000      -0.30925704       0.12080501 </v>
   <v>       0.50000000      -0.31373713      -0.21805423 </v>
  </varray>
 </structure>
 <varray name="primitive_index" >
  <v type="int" >        1 </v>
  <v type="int" >        7 </v>
  <v type="int" >        3 </v>
  <v type="int" >        6 </v>
  <v type="int" >        9 </v>
  <v type="int" >       11 </v>
  <v type="int" >       13 </v>
  <v type="int" >       16 </v>
  <v type="int" >       14 </v>
  <v type="int" >       15 </v>
  <v type="int" >       12 </v>
  <v type="int" >        4 </v>
  <v type="int" >        5 </v>
  <v type="int" >        8 </v>
  <v type="int" >       10 </v>
  <v type="int" >        2 </v>
 </varray>
 <kpoints>
  <generation param="Monkhorst-Pack">
   <v type="int" name="divisions">       4        4        4 </v>
   <v name="usershift">      0.00000000       0.00000000       0.00000000 </v>
   <v name="genvec1">      0.25000000       0.00000000       0.00000000 </v>
   <v name="genvec2">      0.00000000       0.25000000       0.00000000 </v>
   <v name="genvec3">      0.00000000       0.00000000       0.25000000 </v>
   <v name="shift">      0.50000000       0.50000000       0.50000000 </v>
  </generation>
  <varray name="kpointlist" >
   <v>       0.12500000       0.12500000       0.12500000 </v>
   <v>       0.37500000       0.12500000       0.12500000 </v>
   <v>       0.12500000       0.37500000       0.12500000 </v>
   <v>       0.37500000       0.37500000       0.12500000 </v>
   <v>       0.12500000       0.12500000       0.37500000 </v>
   <v>       0.37500000       0.12500000       0.37500000 </v>
   <v>       0.12500000       0.37500000       0.37500000 </v>
   <v>       0.37500000       0.37500000       0.37500000 </v>
  </varray>
  <varray name="weights" >
   <v>       0.12500000 </v>
   <v>       0.12500000 </v>
   <v>       0.12500000 </v>
   <v>       0.12500000 </v>
   <v>       0.12500000 </v>
   <v>       0.12500000 </v>
   <v>       0.12500000 </v>
   <v>       0.12500000 </v>
  </varray>
  <varray name="tetrahedronlist"  type="int" >
   <v type="int" >        2        1        2        4        5 </v>
   <v type="int" >        2        1        3        4        5 </v>
   <v type="int" >        2        3        4        5        7 </v>
   <v type="int" >        2        2        4        5        6 </v>
   <v type="int" >        2        4        5        6        8 </v>
   <v type="int" >        2        4        5        7        8 </v>
   <v type="int" >        2        2        2        4        6 </v>
   <v type="int" >        2        2        4        4        6 </v>
   <v type="int" >        2        4        4        6        8 </v>
   <v type="int" >        2        2        4        6        6 </v>
   <v type="int" >        2        4        6        6        8 </v>
   <v type="int" >        2        4        6        8        8 </v>
   <v type="int" >        2        1        2        3        6 </v>
   <v type="int" >        2        2        3        4        6 </v>
   <v type="int" >        2        3        4        6        8 </v>
   <v type="int" >        2        1        3        5        6 </v>
   <v type="int" >        2        3        5        6        7 </v>
   <v type="int" >        2        3        6        7        8 </v>
   <v type="int" >        2        1        1        3        5 </v>
   <v type="int" >        2        1        3        3        5 </v>
   <v type="int" >        2        3        3        5        7 </v>
   <v type="int" >        2        1        3        5        5 </v>
   <v type="int" >        2        3        5        5        7 </v>
   <v type="int" >        2        3        5        7        7 </v>
   <v type="int" >        2        3        4        4        7 </v>
   <v type="int" >        2        3        3        4        7 </v>
   <v type="int" >        2        3        4        7        7 </v>
   <v type="int" >        2        4        4        7        8 </v>
   <v type="int" >        2        4        7        8        8 </v>
   <v type="int" >        2        4        7        7        8 </v>
   <v type="int" >        4        4        4        4        8 </v>
   <v type="int" >        4        4        4        8        8 </v>
   <v type="int" >        4        4        8        8        8 </v>
   <v type="int" >        2        3        3        4        8 </v>
   <v type="int" >        2        3        4        4        8 </v>
   <v type="int" >        2        3        4        8        8 </v>
   <v type="int" >        2        3        3        7        8 </v>
   <v type="int" >        2        3        7        7        8 </v>
   <v type="int" >        2        3        7        8        8 </v>
   <v type="int" >        4        3        3        3        7 </v>
   <v type="int" >        4        3        3        7        7 </v>
   <v type="int" >        4        3        7        7        7 </v>
   <v type="int" >        2        2        3        4        7 </v>
   <v type="int" >        2        1        2        3        7 </v>
   <v type="int" >        2        1        2        5        7 </v>
   <v type="int" >        2        2        4        7        8 </v>
   <v type="int" >        2        2        6        7        8 </v>
   <v type="int" >        2        2        5        6        7 </v>
   <v type="int" >        2        2        4        4        8 </v>
   <v type="int" >        2        2        2        4        8 </v>
   <v type="int" >        2        2        2        6        8 </v>
   <v type="int" >        2        2        4        8        8 </v>
   <v type="int" >        2        2        6        8        8 </v>
   <v type="int" >        2        2        6        6        8 </v>
   <v type="int" >        2        1        3        4        8 </v>
   <v type="int" >        2        1        2        4        8 </v>
   <v type="int" >        2        1        2        6        8 </v>
   <v type="int" >        2        1        3        7        8 </v>
   <v type="int" >        2        1        5        7        8 </v>
   <v type="int" >        2        1        5        6        8 </v>
   <v type="int" >        2        1        3        3        7 </v>
   <v type="int" >        2        1        1        3        7 </v>
   <v type="int" >        2        1        1        5        7 </v>
   <v type="int" >        2        1        3        7        7 </v>
   <v type="int" >        2        1        5        7        7 </v>
   <v type="int" >        2        1        5        5        7 </v>
   <v type="int" >        2        1        2        2        5 </v>
   <v type="int" >        2        1        1        2        5 </v>
   <v type="int" >        2        1        2        5        5 </v>
   <v type="int" >        2        2        2        5        6 </v>
   <v type="int" >        2        2        5        6        6 </v>
   <v type="int" >        2        2        5        5        6 </v>
   <v type="int" >        4        2        2        2        6 </v>
   <v type="int" >        4        2        2        6        6 </v>
   <v type="int" >        4        2        6        6        6 </v>
   <v type="int" >        2        1        1        2        6 </v>
   <v type="int" >        2        1        2        2        6 </v>
   <v type="int" >        2        1        2        6        6 </v>
   <v type="int" >        2        1        1        5        6 </v>
   <v type="int" >        2        1        5        5        6 </v>
   <v type="int" >        2        1        5        6        6 </v>
   <v type="int" >        4        1        1        1        5 </v>
   <v type="int" >        4        1        1        5        5 </v>
   <v type="int" >        4        1        5        5        5 </v>
   <v type="int" >        2        5        5        6        8 </v>
   <v type="int" >        2        5        5        7        8 </v>
   <v type="int" >        2        5        7        7        8 </v>
   <v type="int" >        2        5        6        6        8 </v>
   <v type="int" >        2        5        6        8        8 </v>
   <v type="int" >        2        5        7        8        8 </v>
   <v type="int" >        4        6        6        6        8 </v>
   <v type="int" >        4        6        6        8        8 </v>
   <v type="int" >        4        6        8        8        8 </v>
   <v type="int" >        2        5        6        6        7 </v>
   <v type="int" >        2        6        6        7        8 </v>
   <v type="int" >        2        6        7        8        8 </v>
   <v type="int" >        2        5        5        6        7 </v>
   <v type="int" >        2        5        6        7        7 </v>
   <v type="int" >        2        6        7        7        8 </v>
   <v type="int" >        4        5        5        5        7 </v>
   <v type="int" >        4        5        5        7        7 </v>
   <v type="int" >        4        5        7        7        7 </v>
   <v type="int" >        4        7        7        8        8 </v>
   <v type="int" >        4        7        7        7        8 </v>
   <v type="int" >        4        7        8        8        8 </v>
   <v type="int" >        6        8        8        8        8 </v>
   <v type="int" >        6        7        7        7        7 </v>
   <v type="int" >        4        5        5        6        6 </v>
   <v type="int" >        4        5        5        5        6 </v>
   <v type="int" >        4        5        6        6        6 </v>
   <v type="int" >        6        6        6        6        6 </v>
   <v type="int" >        6        5        5        5        5 </v>
   <v type="int" >        2        1        1        2        4 </v>
   <v type="int" >        2        1        1        3        4 </v>
   <v type="int" >        2        1        3        3        4 </v>
   <v type="int" >        2        1        2        2        4 </v>
   <v type="int" >        2        1        2        4        4 </v>
   <v type="int" >        2        1        3        4        4 </v>
   <v type="int" >        4        2        2        2        4 </v>
   <v type="int" >        4        2        2        4        4 </v>
   <v type="int" >        4        2        4        4        4 </v>
   <v type="int" >        2        1        2        2        3 </v>
   <v type="int" >        2        2        2        3        4 </v>
   <v type="int" >        2        2        3        4        4 </v>
   <v type="int" >        2        1        1        2        3 </v>
   <v type="int" >        2        1        2        3        3 </v>
   <v type="int" >        2        2        3        3        4 </v>
   <v type="int" >        4        1        1        1        3 </v>
   <v type="int" >        4        1        1        3        3 </v>
   <v type="int" >        4        1        3        3        3 </v>
   <v type="int" >        4        3        3        4        4 </v>
   <v type="int" >        4        3        3        3        4 </v>
   <v type="int" >        4        3        4        4        4 </v>
   <v type="int" >        6        4        4        4        4 </v>
   <v type="int" >        6        3        3        3        3 </v>
   <v type="int" >        4        1        1        2        2 </v>
   <v type="int" >        4        1        1        1        2 </v>
   <v type="int" >        4        1        2        2        2 </v>
   <v type="int" >        6        2        2        2        2 </v>
   <v type="int" >        6        1        1        1        1 </v>
  </varray>
  <i name="volumeweight">      0.00260417 </i>
 </kpoints>
 <parameters>
  <separator name="general" >
   <i type="string" name="SYSTEM">unknown system</i>
   <i type="logical" name="LCOMPAT"> F  </i>
  </separator>
  <separator name="electronic" >
   <i type="string" name="PREC">accura</i>
   <i name="ENMAX">    420.00000000</i>
   <i name="ENAUG">    628.94500000</i>
   <i name="EDIFF">      0.00002000</i>
   <i type="int" name="IALGO">    68</i>
   <i type="int" name="IWAVPR">    11</i>
   <i type="int" name="NBANDS">    48</i>
   <i name="NELECT">     76.00000000</i>
   <i type="int" name="TURBO">     0</i>
   <i type="int" name="IRESTART">     0</i>
   <i type="int" name="NREBOOT">     0</i>
   <i type="int" name="NMIN">     0</i>
   <i name="EREF">      0.00000000</i>
   <separator name="electronic smearing" >
    <i type="int" name="ISMEAR">    -5</i>
    <i name="SIGMA">      0.20000000</i>
    <i name="KSPACING">      0.50000000</i>
    <i type="logical" name="KGAMMA"> T  </i>
   </separator>
   <separator name="electronic projectors" >
    <i type="logical" name="LREAL"> T  </i>
    <v name="ROPT">     -0.00025000     -0.00025000     -0.00025000</v>
    <i type="int" name="LMAXPAW">  -100</i>
    <i type="int" name="LMAXMIX">     2</i>
    <i type="logical" name="NLSPLINE"> F  </i>
   </separator>
   <separator name="electronic startup" >
    <i type="int" name="ISTART">     0</i>
    <i type="int" name="ICHARG">     2</i>
    <i type="int" name="INIWAV">     1</i>
   </separator>
   <separator name="electronic spin" >
    <i type="int" name="ISPIN">     1</i>
    <i type="logical" name="LNONCOLLINEAR"> F  </i>
    <v name="MAGMOM">      1.00000000      1.00000000      1.00000000      1.00000000      1.00000000      1.00000000      1.00000000      1.00000000      1.00000000      1.00000000      1.00000000      1.00000000      1.00000000      1.00000000      1.00000000      1.00000000</v>
    <i name="NUPDOWN">     -1.00000000</i>
    <i type="logical" name="LSORBIT"> F  </i>
    <v name="SAXIS">      0.00000000      0.00000000      1.00000000</v>
    <i type="logical" name="LSPIRAL"> F  </i>
    <v name="QSPIRAL">      0.00000000      0.00000000      0.00000000</v>
    <i type="logical" name="LZEROZ"> F  </i>
   </separator>
   <separator name="electronic exchange-correlation" >
    <i type="logical" name="LASPH"> F  </i>
    <i type="logical" name="LMETAGGA"> F  </i>
   </separator>
   <separator name="electronic convergence" >
    <i type="int" name="NELM">   100</i>
    <i type="int" name="NELMDL">    -5</i>
    <i type="int" name="NELMIN">     2</i>
    <i name="ENINI">    420.00000000</i>
    <separator name="electronic convergence detail" >
     <i type="logical" name="LDIAG"> T  </i>
     <i type="logical" name="LSUBROT"> F  </i>
     <i name="WEIMIN">      0.00100000</i>
     <i name="EBREAK">      0.00000010</i>
     <i name="DEPER">      0.30000000</i>
     <i type="int" name="NRMM">     4</i>
     <i name="TIME">      0.40000000</i>
    </separator>
   </separator>
   <separator name="electronic mixer" >
    <i name="AMIX">      0.40000000</i>
    <i name="BMIX">      1.00000000</i>
    <i name="AMIN">      0.10000000</i>
    <i name="AMIX_MAG">      1.60000000</i>
    <i name="BMIX_MAG">      1.00000000</i>
    <separator name="electronic mixer details" >
     <i type="int" name="IMIX">     4</i>
     <i type="logical" name="MIXFIRST"> F  </i>
     <i type="int" name="MAXMIX">   -45</i>
     <i name="WC">    100.00000000</i>
     <i type="int" name="INIMIX">     1</i>
     <i type="int" name="MIXPRE">     1</i>
     <i type="int" name="MREMOVE">     5</i>
    </separator>
   </separator>
   <separator name="electronic dipolcorrection" >
    <i type="logical" name="LDIPOL"> F  </i>
    <i type="logical" name="LMONO"> F  </i>
    <i type="int" name="IDIPOL">     0</i>
    <i name="EPSILON">      1.00000000</i>
    <v name="DIPOL">   -100.00000000   -100.00000000   -100.00000000</v>
    <i name="EFIELD">      0.00000000</i>
   </separator>
  </separator>
  <separator name="grids" >
   <i type="int" name="NGX">    50</i>
   <i type="int" name="NGY">    48</i>
   <i type="int" name="NGZ">    40</i>
   <i type="int" name="NGXF">   100</i>
   <i type="int" name="NGYF">    96</i>
   <i type="int" name="NGZF">    80</i>
   <i type="logical" name="ADDGRID"> F  </i>
  </separator>
  <separator name="ionic" >
   <i type="int" name="NSW">   100</i>
   <i type="int" name="IBRION">     2</i>
   <i type="int" name="MDALGO">     0</i>
   <i type="int" name="ISIF">     3</i>
   <i name="PSTRESS">      0.00000000</i>
   <i name="EDIFFG">      0.00020000</i>
   <i type="int" name="NFREE">     1</i>
   <i name="POTIM">      0.50000000</i>
   <i name="SMASS">     -3.00000000</i>
   <i name="SCALEE">      1.00000000</i>
  </separator>
  <separator name="ionic md" >
   <i name="TEBEG">      0.00010000</i>
   <i name="TEEND">      0.00010000</i>
   <i type="int" name="NBLOCK">     1</i>
   <i type="int" name="KBLOCK">   100</i>
   <i type="int" name="NPACO">   256</i>
   <i name="APACO">     16.00000000</i>
  </separator>
  <separator name="symmetry" >
   <i type="int" name="ISYM">     2</i>
   <i name="SYMPREC">      0.00001000</i>
  </separator>
  <separator name="dos" >
   <i type="int" name="LORBIT">     0</i>
   <v name="RWIGS">     -1.00000000     -1.00000000     -1.00000000</v>
   <i type="int" name="NEDOS">   301</i>
   <i name="EMIN">     10.00000000</i>
   <i name="EMAX">    -10.00000000</i>
   <i name="EFERMI">      0.00000000</i>
  </separator>
  <separator name="writing" >
   <i type="int" name="NWRITE">     2</i>
   <i type="logical" name="LWAVE"> F  </i>
   <i type="logical" name="LDOWNSAMPLE"> F  </i>
   <i type="logical" name="LCHARG"> F  </i>
   <i type="logical" name="LPARD"> F  </i>
   <i type="logical" name="LVTOT"> F  </i>
   <i type="logical" name="LVHAR"> F  </i>
   <i type="logical" name="LELF"> F  </i>
   <i type="logical" name="LOPTICS"> F  </i>
   <v name="STM">      0.00000000      0.00000000      0.00000000      0.00000000      0.00000000      0.00000000      0.00000000</v>
  </separator>
  <separator name="performance" >
   <i type="int" name="NPAR">     4</i>
   <i type="int" name="NSIM">     4</i>
   <i type="int" name="NBLK">    -1</i>
   <i type="logical" name="LPLANE"> T  </i>
   <i type="logical" name="LSCALAPACK"> T  </i>
   <i type="logical" name="LSCAAWARE"> F  </i>
   <i type="logical" name="LSCALU"> F  </i>
   <i type="logical" name="LASYNC"> F  </i>
   <i type="logical" name="LORBITALREAL"> F  </i>
  </separator>
  <separator name="miscellaneous" >
   <i type="int" name="IDIOT">     3</i>
   <i type="int" name="ISPECIAL">     0</i>
   <i type="logical" name="LMUSIC"> F  </i>
   <v name="POMASS">     30.97400000     32.06600000      7.01000000</v>
   <v name="DARWINR">      0.00000000      0.00000000      0.00000000</v>
   <v name="DARWINV">      1.00000000      1.00000000      1.00000000</v>
   <i type="logical" name="LCORR"> T  </i>
  </separator>
  <i type="logical" name="GGA_COMPAT"> T  </i>
  <i type="logical" name="LBERRY"> F  </i>
  <i type="int" name="ICORELEVEL">     0</i>
  <i type="logical" name="LDAU"> F  </i>
  <i type="int" name="I_CONSTRAINED_M">     0</i>
  <separator name="electronic exchange-correlation" >
   <i type="string" name="GGA">--</i>
   <i type="int" name="VOSKOWN">     0</i>
   <i type="logical" name="LHFCALC"> F  </i>
   <i type="string" name="PRECFOCK"></i>
   <i type="logical" name="LSYMGRAD"> F  </i>
   <i type="logical" name="LHFONE"> F  </i>
   <i type="logical" name="LRHFCALC"> F  </i>
   <i type="logical" name="LTHOMAS"> F  </i>
   <i type="logical" name="LMODELHF"> F  </i>
   <i name="ENCUT4O">     -1.00000000</i>
   <i type="int" name="EXXOEP">     0</i>
   <i type="int" name="FOURORBIT">     0</i>
   <i name="AEXX">      0.00000000</i>
   <i name="HFALPHA">      0.00000000</i>
   <i name="MCALPHA">      0.00000000</i>
   <i name="ALDAX">      1.00000000</i>
   <i name="AGGAX">      1.00000000</i>
   <i name="ALDAC">      1.00000000</i>
   <i name="AGGAC">      1.00000000</i>
   <i type="int" name="NKREDX">     1</i>
   <i type="int" name="NKREDY">     1</i>
   <i type="int" name="NKREDZ">     1</i>
   <i type="logical" name="SHIFTRED"> F  </i>
   <i type="logical" name="ODDONLY"> F  </i>
   <i type="logical" name="EVENONLY"> F  </i>
   <i type="int" name="LMAXFOCK">     0</i>
   <i type="int" name="NMAXFOCKAE">     0</i>
   <i type="logical" name="LFOCKAEDFT"> F  </i>
   <i name="HFSCREEN">      0.00000000</i>
   <i name="HFSCREENC">      0.00000000</i>
   <i type="int" name="NBANDSGWLOW">     0</i>
  </separator>
  <separator name="vdW DFT" >
   <i type="logical" name="LUSE_VDW"> F  </i>
   <i name="Zab_VDW">     -0.84910000</i>
   <i name="PARAM1">      0.12340000</i>
   <i name="PARAM2">      1.00000000</i>
   <i name="PARAM3">      0.00000000</i>
  </separator>
  <separator name="model GW" >
   <i type="int" name="MODEL_GW">     0</i>
   <i name="MODEL_EPS0">     10.81154036</i>
   <i name="MODEL_ALPHA">      1.00000000</i>
  </separator>
  <separator name="linear response parameters" >
   <i type="logical" name="LEPSILON"> F  </i>
   <i type="logical" name="LRPA"> F  </i>
   <i type="logical" name="LNABLA"> F  </i>
   <i type="logical" name="LVEL"> F  </i>
   <i type="int" name="KINTER">     0</i>
   <i name="CSHIFT">      0.10000000</i>
   <i name="OMEGAMAX">     -1.00000000</i>
   <i name="DEG_THRESHOLD">      0.00200000</i>
   <i name="RTIME">     -0.10000000</i>
   <i name="WPLASMAI">      0.00000000</i>
   <v name="DFIELD">      0.00000000      0.00000000      0.00000000</v>
   <v name="WPLASMA">      0.00000000      0.00000000      0.00000000      0.00000000      0.00000000      0.00000000      0.00000000      0.00000000      0.00000000</v>
  </separator>
  <separator name="orbital magnetization" >
   <i type="logical" name="NUCIND"> F  </i>
   <v name="MAGPOS">      0.00000000      0.00000000      0.00000000</v>
   <i type="logical" name="LNICSALL"> T  </i>
   <i type="logical" name="ORBITALMAG"> F  </i>
   <i type="logical" name="LMAGBLOCH"> F  </i>
   <i type="logical" name="LCHIMAG"> F  </i>
   <i type="logical" name="LGAUGE"> T  </i>
   <i type="int" name="MAGATOM">     0</i>
   <v name="MAGDIPOL">      0.00000000      0.00000000      0.00000000</v>
   <v name="AVECCONST">      0.00000000      0.00000000      0.00000000</v>
  </separator>
  <separator name="response functions" >
   <i type="logical" name="LADDER"> F  </i>
   <i type="logical" name="LRPAFORCE"> F  </i>
   <i type="logical" name="LFXC"> F  </i>
   <i type="logical" name="LHARTREE"> T  </i>
   <i type="int" name="IBSE">     0</i>
   <v type="int" name="KPOINT">    -1     0     0     0</v>
   <i type="logical" name="LTCTE"> F  </i>
   <i type="logical" name="LTETE"> F  </i>
   <i type="logical" name="LTRIPLET"> F  </i>
   <i type="logical" name="LFXCEPS"> F  </i>
   <i type="logical" name="LFXHEG"> F  </i>
   <i type="int" name="NATURALO">     2</i>
   <i type="logical" name="L2ORDER"> F  </i>
   <i type="logical" name="LMP2LT"> F  </i>
   <i type="logical" name="LUSEW"> F  </i>
   <i name="ENCUTGW">     -2.00000000</i>
   <i name="ENCUTGWSOFT">     -2.00000000</i>
   <i name="ENCUTLF">     -1.00000000</i>
   <i type="int" name="LMAXMP2">    -1</i>
   <i name="SCISSOR">      0.00000000</i>
   <i type="int" name="NOMEGA">     0</i>
   <i type="int" name="NOMEGAR">     0</i>
   <i type="int" name="NBANDSGW">    -1</i>
   <i type="int" name="NBANDSO">    -1</i>
   <i type="int" name="NBANDSV">    -1</i>
   <i type="int" name="NELM">   100</i>
   <i type="int" name="NELMHF">     1</i>
   <i type="int" name="DIM">     3</i>
   <i type="int" name="ANTIRES">     0</i>
   <i name="OMEGAMAX">    -30.00000000</i>
   <i name="OMEGAMIN">    -30.00000000</i>
   <i name="OMEGATL">   -200.00000000</i>
   <i type="int" name="OMEGAGRID">   140</i>
   <i name="CSHIFT">     -0.10000000</i>
   <i type="logical" name="SELFENERGY"> F  </i>
   <i type="logical" name="LSPECTRAL"> F  </i>
   <i type="logical" name="LSPECTRALGW"> F  </i>
   <i type="logical" name="LSINGLES"> F  </i>
   <i type="logical" name="LFERMIGW"> F  </i>
   <i type="logical" name="ODDONLYGW"> F  </i>
   <i type="logical" name="EVENONLYGW"> F  </i>
   <i type="int" name="NKREDLFX">     1</i>
   <i type="int" name="NKREDLFY">     1</i>
   <i type="int" name="NKREDLFZ">     1</i>
   <i type="int" name="MAXMEM">  2800</i>
   <i type="int" name="TELESCOPE">     0</i>
   <i type="int" name="TAUPAR">     1</i>
   <i type="int" name="OMEGAPAR">    -1</i>
   <i name="LAMBDA">      1.00000000</i>
  </separator>
  <separator name="External order field" >
   <i name="OFIELD_KAPPA">      0.00000000</i>
   <v name="OFIELD_K">      0.00000000      0.00000000      0.00000000</v>
   <i name="OFIELD_Q6_NEAR">      0.00000000</i>
   <i name="OFIELD_Q6_FAR">      0.00000000</i>
   <i name="OFIELD_A">      0.00000000</i>
  </separator>
 </parameters>
 <atominfo>
  <atoms>      16 </atoms>
  <types>       3 </types>
  <array name="atoms" >
   <dimension dim="1">ion</dimension>
   <field type="string">element</field>
   <field type="int">atomtype</field>
   <set>
    <rc><c>P </c><c>   1</c></rc>
    <rc><c>P </c><c>   1</c></rc>
    <rc><c>S </c><c>   2</c></rc>
    <rc><c>S </c><c>   2</c></rc>
    <rc><c>S </c><c>   2</c></rc>
    <rc><c>S </c><c>   2</c></rc>
    <rc><c>S </c><c>   2</c></rc>
    <rc><c>S </c><c>   2</c></rc>
    <rc><c>S </c><c>   2</c></rc>
    <rc><c>S </c><c>   2</c></rc>
    <rc><c>Li</c><c>   3</c></rc>
    <rc><c>Li</c><c>   3</c></rc>
    <rc><c>Li</c><c>   3</c></rc>
    <rc><c>Li</c><c>   3</c></rc>
    <rc><c>Li</c><c>   3</c></rc>
    <rc><c>Li</c><c>   3</c></rc>
   </set>
  </array>
  <array name="atomtypes" >
   <dimension dim="1">type</dimension>
   <field type="int">atomspertype</field>
   <field type="string">element</field>
   <field>mass</field>
   <field>valence</field>
   <field type="string">pseudopotential</field>
   <set>
    <rc><c>   2</c><c>P </c><c>     30.97400000</c><c>      5.00000000</c><c>  PAW P 26Mar2009                       </c></rc>
    <rc><c>   8</c><c>S </c><c>     32.06600000</c><c>      6.00000000</c><c>  PAW S 27Mar2009                       </c></rc>
    <rc><c>   6</c><c>Li</c><c>      7.01000000</c><c>      3.00000000</c><c>  PAW Li_sv 10Sep2004                   </c></rc>
   </set>
  </array>
 </atominfo>
 <structure name="initialpos" >
  <crystal>
   <varray name="basis" >
    <v>       7.48046125       0.00000000       0.00000000 </v>
    <v>       0.00000000       6.41052680       0.00000000 </v>
    <v>       0.00000000       0.00000000       6.01221092 </v>
   </varray>
   <i name="volume">    288.30774293 </i>
   <varray name="rec_basis" >
    <v>       0.13368160       0.00000000       0.00000000 </v>
    <v>       0.00000000       0.15599342       0.00000000 </v>
    <v>       0.00000000       0.00000000       0.16632816 </v>
   </varray>
  </crystal>
  <varray name="positions" >
   <v>       0.00000000       0.31373713       0.28194577 </v>
   <v>       0.50000000       0.68626287       0.78194577 </v>
   <v>       0.22305181       0.16347448       0.17240902 </v>
   <v>       0.27694819       0.83652552       0.67240902 </v>
   <v>       0.72305181       0.83652552       0.67240902 </v>
   <v>       0.77694819       0.16347448       0.17240902 </v>
   <v>       0.00000000       0.61062541       0.16388350 </v>
   <v>       0.50000000       0.38937459       0.66388350 </v>
   <v>       0.00000000       0.30925704       0.62080501 </v>
   <v>       0.50000000       0.69074296       0.12080501 </v>
   <v>       0.00000000       0.65197938       0.76765444 </v>
   <v>       0.50000000       0.34802062       0.26765444 </v>
   <v>       0.25758745       0.18584183       0.78362580 </v>
   <v>       0.24241255       0.81415817       0.28362580 </v>
   <v>       0.75758745       0.81415817       0.28362580 </v>
   <v>       0.74241255       0.18584183       0.78362580 </v>
  </varray>
 </structure>
 <calculation>
  <scstep>
   <time name="dav">    0.21    0.25</time>
   <time name="total">    0.23    0.29</time>
   <energy>
    <i name="alphaZ">     68.44407997 </i>
    <i name="ewald">  -2732.84623188 </i>
    <i name="hartreedc">   -616.57435726 </i>
    <i name="XCdc">    181.80181037 </i>
    <i name="pawpsdc">   2494.22442938 </i>
    <i name="pawaedc">  -2541.12215007 </i>
    <i name="eentropy">      0.00000000 </i>
    <i name="bandstr">   -125.33645014 </i>
    <i name="atom">   3769.08782378 </i>
    <i name="e_fr_energy">    497.67895414 </i>
    <i name="e_wo_entrp">    497.67895414 </i>
    <i name="e_0_energy">    497.67895414 </i>
   </energy>
  </scstep>
  <scstep>
   <time name="dav">    0.20    0.20</time>
   <time name="total">    0.20    0.20</time>
   <energy>
    <i name="e_fr_energy">    -11.06234818 </i>
    <i name="e_wo_entrp">    -11.06234818 </i>
    <i name="e_0_energy">    -11.06234818 </i>
   </energy>
  </scstep>
  <scstep>
   <time name="dav">    0.22    0.22</time>
   <time name="total">    0.22    0.22</time>
   <energy>
    <i name="e_fr_energy">    -72.38700070 </i>
    <i name="e_wo_entrp">    -72.38700070 </i>
    <i name="e_0_energy">    -72.38700070 </i>
   </energy>
  </scstep>
  <scstep>
   <time name="dav">    0.28    0.28</time>
   <time name="total">    0.28    0.28</time>
   <energy>
    <i name="e_fr_energy">    -79.38425797 </i>
    <i name="e_wo_entrp">    -79.38425797 </i>
    <i name="e_0_energy">    -79.38425797 </i>
   </energy>
  </scstep>
  <scstep>
   <time name="dav">    0.24    0.24</time>
   <time name="total">    0.26    0.26</time>
   <energy>
    <i name="e_fr_energy">    -80.20509080 </i>
    <i name="e_wo_entrp">    -80.20509080 </i>
    <i name="e_0_energy">    -80.20509080 </i>
   </energy>
  </scstep>
  <scstep>
   <time name="diag">    0.05    0.05</time>
   <time name="diis">    0.10    0.10</time>
   <time name="orth">    0.01    0.01</time>
   <time name="total">    0.18    0.18</time>
   <energy>
    <i name="e_fr_energy">    -77.89320591 </i>
    <i name="e_wo_entrp">    -77.89320591 </i>
    <i name="e_0_energy">    -77.89320591 </i>
   </energy>
  </scstep>
  <scstep>
   <time name="diag">    0.05    0.05</time>
   <time name="diis">    0.09    0.09</time>
   <time name="orth">    0.01    0.01</time>
   <time name="total">    0.18    0.18</time>
   <energy>
    <i name="e_fr_energy">    -77.47585097 </i>
    <i name="e_wo_entrp">    -77.47585097 </i>
    <i name="e_0_energy">    -77.47585097 </i>
   </energy>
  </scstep>
  <scstep>
   <time name="diag">    0.05    0.05</time>
   <time name="diis">    0.10    0.10</time>
   <time name="orth">    0.01    0.01</time>
   <time name="total">    0.19    0.19</time>
   <energy>
    <i name="e_fr_energy">    -77.41163505 </i>
    <i name="e_wo_entrp">    -77.41163505 </i>
    <i name="e_0_energy">    -77.41163505 </i>
   </energy>
  </scstep>
  <scstep>
   <time name="diag">    0.05    0.05</time>
   <time name="diis">    0.12    0.12</time>
   <time name="orth">    0.01    0.01</time>
   <time name="total">    0.20    0.20</time>
   <energy>
    <i name="e_fr_energy">    -77.40632419 </i>
    <i name="e_wo_entrp">    -77.40632419 </i>
    <i name="e_0_energy">    -77.40632419 </i>
   </energy>
  </scstep>
  <scstep>
   <time name="diag">    0.05    0.05</time>
   <time name="diis">    0.13    0.13</time>
   <time name="orth">    0.01    0.01</time>
   <time name="total">    0.21    0.21</time>
   <energy>
    <i name="e_fr_energy">    -77.40689604 </i>
    <i name="e_wo_entrp">    -77.40689604 </i>
    <i name="e_0_energy">    -77.40689604 </i>
   </energy>
  </scstep>
  <scstep>
   <time name="diag">    0.05    0.05</time>
   <time name="diis">    0.12    0.12</time>
   <time name="orth">    0.01    0.01</time>
   <time name="total">    0.20    0.20</time>
   <energy>
    <i name="e_fr_energy">    -77.40708767 </i>
    <i name="e_wo_entrp">    -77.40708767 </i>
    <i name="e_0_energy">    -77.40708767 </i>
   </energy>
  </scstep>
  <scstep>
   <time name="diag">    0.05    0.05</time>
   <time name="diis">    0.10    0.10</time>
   <time name="orth">    0.01    0.01</time>
   <time name="total">    0.19    0.19</time>
   <energy>
    <i name="e_fr_energy">    -77.40716375 </i>
    <i name="e_wo_entrp">    -77.40716375 </i>
    <i name="e_0_energy">    -77.40716375 </i>
   </energy>
  </scstep>
  <scstep>
   <time name="diag">    0.05    0.05</time>
   <time name="diis">    0.07    0.07</time>
   <time name="orth">    0.01    0.01</time>
   <time name="total">    0.15    0.15</time>
   <energy>
    <i name="e_fr_energy">    -77.40718680 </i>
    <i name="e_wo_entrp">    -77.40718680 </i>
    <i name="e_0_energy">    -77.40718680 </i>
   </energy>
  </scstep>
  <scstep>
   <time name="diag">    0.05    0.05</time>
   <time name="diis">    0.08    0.08</time>
   <time name="orth">    0.01    0.01</time>
   <time name="total">    0.14    0.14</time>
   <energy>
    <i name="alphaZ">     68.44407997 </i>
    <i name="ewald">  -2732.84623188 </i>
    <i name="hartreedc">   -647.80600400 </i>
    <i name="XCdc">    185.53101894 </i>
    <i name="pawpsdc">   7345.95295578 </i>
    <i name="pawaedc">  -7395.93209447 </i>
    <i name="eentropy">      0.00000000 </i>
    <i name="bandstr">   -669.83874021 </i>
    <i name="atom">   3769.08782378 </i>
    <i name="e_fr_energy">    -77.40719210 </i>
    <i name="e_wo_entrp">    -77.40719210 </i>
    <i name="e_0_energy">    -77.40719210 </i>
   </energy>
  </scstep>
  <structure>
   <crystal>
    <varray name="basis" >
     <v>       7.48046125       0.00000000       0.00000000 </v>
     <v>       0.00000000       6.41052680       0.00000000 </v>
     <v>       0.00000000       0.00000000       6.01221092 </v>
    </varray>
    <i name="volume">    288.30774293 </i>
    <varray name="rec_basis" >
     <v>       0.13368160       0.00000000       0.00000000 </v>
     <v>       0.00000000       0.15599342       0.00000000 </v>
     <v>       0.00000000       0.00000000       0.16632816 </v>
    </varray>
   </crystal>
   <varray name="positions" >
    <v>       0.00000000       0.31373713       0.28194577 </v>
    <v>       0.50000000       0.68626287       0.78194577 </v>
    <v>       0.22305181       0.16347448       0.17240902 </v>
    <v>       0.27694819       0.83652552       0.67240902 </v>
    <v>       0.72305181       0.83652552       0.67240902 </v>
    <v>       0.77694819       0.16347448       0.17240902 </v>
    <v>       0.00000000       0.61062541       0.16388350 </v>
    <v>       0.50000000       0.38937459       0.66388350 </v>
    <v>       0.00000000       0.30925704       0.62080501 </v>
    <v>       0.50000000       0.69074296       0.12080501 </v>
    <v>       0.00000000       0.65197938       0.76765444 </v>
    <v>       0.50000000       0.34802062       0.26765444 </v>
    <v>       0.25758745       0.18584183       0.78362580 </v>
    <v>       0.24241255       0.81415817       0.28362580 </v>
    <v>       0.75758745       0.81415817       0.28362580 </v>
    <v>       0.74241255       0.18584183       0.78362580 </v>
   </varray>
  </structure>
  <varray name="forces" >
   <v>       0.00000000       0.02779031       0.00821190 </v>
   <v>       0.00000000      -0.02779031       0.00821190 </v>
   <v>       0.00502246       0.04744399      -0.02501773 </v>
   <v>      -0.00502246      -0.04744399      -0.02501773 </v>
   <v>       0.00502246      -0.04744399      -0.02501773 </v>
   <v>      -0.00502246       0.04744399      -0.02501773 </v>
   <v>       0.00000000       0.04738467       0.04505295 </v>
   <v>       0.00000000      -0.04738467       0.04505295 </v>
   <v>       0.00000000       0.05726023      -0.01954962 </v>
   <v>       0.00000000      -0.05726023      -0.01954962 </v>
   <v>       0.00000000      -0.02737707      -0.02075820 </v>
   <v>       0.00000000       0.02737707      -0.02075820 </v>
   <v>       0.06340912       0.05230180       0.01853921 </v>
   <v>      -0.06340912      -0.05230180       0.01853921 </v>
   <v>       0.06340912      -0.05230180       0.01853921 </v>
   <v>      -0.06340912       0.05230180       0.01853921 </v>
  </varray>
  <varray name="stress" >
   <v>      -0.00561081       0.00000000       0.00000000 </v>
   <v>       0.00000000       0.32691907       0.00000000 </v>
   <v>       0.00000000       0.00000000      -0.14153848 </v>
  </varray>
  <energy>
   <i name="e_fr_energy">    -77.40719210 </i>
   <i name="e_wo_entrp">    -77.40719210 </i>
   <i name="e_0_energy">      0.00000000 </i>
  </energy>
  <time name="totalsc">    3.03    3.10</time>
 </calculation>
 <calculation>
  <scstep>
   <time name="dav">    0.19    0.19</time>
   <time name="total">    0.21    0.22</time>
   <energy>
    <i name="alphaZ">     68.43740567 </i>
    <i name="ewald">  -2732.62657986 </i>
    <i name="hartreedc">   -647.90814703 </i>
    <i name="XCdc">    185.52679575 </i>
    <i name="pawpsdc">   7345.89208973 </i>
    <i name="pawaedc">  -7395.87137812 </i>
    <i name="eentropy">      0.00000000 </i>
    <i name="bandstr">   -669.94639866 </i>
    <i name="atom">   3769.08782378 </i>
    <i name="e_fr_energy">    -77.40838873 </i>
    <i name="e_wo_entrp">    -77.40838873 </i>
    <i name="e_0_energy">    -77.40838873 </i>
   </energy>
  </scstep>
  <scstep>
   <time name="diag">    0.05    0.05</time>
   <time name="diis">    0.11    0.11</time>
   <time name="orth">    0.01    0.01</time>
   <time name="total">    0.19    0.19</time>
   <energy>
    <i name="e_fr_energy">    -77.40955617 </i>
    <i name="e_wo_entrp">    -77.40955617 </i>
    <i name="e_0_energy">    -77.40955617 </i>
   </energy>
  </scstep>
  <scstep>
   <time name="diag">    0.05    0.05</time>
   <time name="diis">    0.13    0.13</time>
   <time name="orth">    0.01    0.01</time>
   <time name="total">    0.21    0.21</time>
   <energy>
    <i name="e_fr_energy">    -77.40956178 </i>
    <i name="e_wo_entrp">    -77.40956178 </i>
    <i name="e_0_energy">    -77.40956178 </i>
   </energy>
  </scstep>
  <scstep>
   <time name="diag">    0.05    0.05</time>
   <time name="diis">    0.12    0.12</time>
   <time name="orth">    0.01    0.01</time>
   <time name="total">    0.20    0.20</time>
   <energy>
    <i name="e_fr_energy">    -77.40955093 </i>
    <i name="e_wo_entrp">    -77.40955093 </i>
    <i name="e_0_energy">    -77.40955093 </i>
   </energy>
  </scstep>
  <scstep>
   <time name="diag">    0.05    0.05</time>
   <time name="diis">    0.05    0.05</time>
   <time name="orth">    0.01    0.01</time>
   <time name="total">    0.12    0.12</time>
   <energy>
    <i name="alphaZ">     68.43740567 </i>
    <i name="ewald">  -2732.62657986 </i>
    <i name="hartreedc">   -647.96644010 </i>
    <i name="XCdc">    185.53078384 </i>
    <i name="pawpsdc">   7346.32061851 </i>
    <i name="pawaedc">  -7396.29213423 </i>
    <i name="eentropy">      0.00000000 </i>
    <i name="bandstr">   -669.90102259 </i>
    <i name="atom">   3769.08782378 </i>
    <i name="e_fr_energy">    -77.40954498 </i>
    <i name="e_wo_entrp">    -77.40954498 </i>
    <i name="e_0_energy">    -77.40954498 </i>
   </energy>
  </scstep>
  <structure>
   <crystal>
    <varray name="basis" >
     <v>       7.48043848       0.00000000       0.00000000 </v>
     <v>       0.00000000       6.41166388       0.00000000 </v>
     <v>       0.00000000       0.00000000       6.01174922 </v>
    </varray>
    <i name="volume">    288.33585987 </i>
    <varray name="rec_basis" >
     <v>       0.13368200       0.00000000       0.00000000 </v>
     <v>       0.00000000       0.15596576       0.00000000 </v>
     <v>       0.00000000       0.00000000       0.16634094 </v>
    </varray>
   </crystal>
   <varray name="positions" >
    <v>       0.00000000       0.31394627       0.28201167 </v>
    <v>       0.50000000       0.68605373       0.78201167 </v>
    <v>       0.22308420       0.16383152       0.17220828 </v>
    <v>       0.27691580       0.83616848       0.67220828 </v>
    <v>       0.72308420       0.83616848       0.67220828 </v>
    <v>       0.77691580       0.16383152       0.17220828 </v>
    <v>       0.00000000       0.61098200       0.16424501 </v>
    <v>       0.50000000       0.38901800       0.66424501 </v>
    <v>       0.00000000       0.30968795       0.62064814 </v>
    <v>       0.50000000       0.69031205       0.12064814 </v>
    <v>       0.00000000       0.65177335       0.76748787 </v>
    <v>       0.50000000       0.34822665       0.26748787 </v>
    <v>       0.25799639       0.18623543       0.78377456 </v>
    <v>       0.24200361       0.81376457       0.28377456 </v>
    <v>       0.75799639       0.81376457       0.28377456 </v>
    <v>       0.74200361       0.18623543       0.78377456 </v>
   </varray>
  </structure>
  <varray name="forces" >
   <v>       0.00000000       0.03131638      -0.01318672 </v>
   <v>       0.00000000      -0.03131638      -0.01318672 </v>
   <v>      -0.00126908       0.03552025      -0.01210325 </v>
   <v>       0.00126908      -0.03552025      -0.01210325 </v>
   <v>      -0.00126908      -0.03552025      -0.01210325 </v>
   <v>       0.00126908       0.03552025      -0.01210325 </v>
   <v>       0.00000000       0.03451202       0.02474985 </v>
   <v>       0.00000000      -0.03451202       0.02474985 </v>
   <v>       0.00000000       0.03485638       0.00454558 </v>
   <v>       0.00000000      -0.03485638       0.00454558 </v>
   <v>       0.00000000      -0.01876983      -0.01105065 </v>
   <v>       0.00000000       0.01876983      -0.01105065 </v>
   <v>       0.04552749       0.03617039       0.00957422 </v>
   <v>      -0.04552749      -0.03617039       0.00957422 </v>
   <v>       0.04552749      -0.03617039       0.00957422 </v>
   <v>      -0.04552749       0.03617039       0.00957422 </v>
  </varray>
  <varray name="stress" >
   <v>      -0.20143122       0.00000000       0.00000000 </v>
   <v>       0.00000000      -0.05504710       0.00000000 </v>
   <v>       0.00000000       0.00000000       0.22830143 </v>
  </varray>
  <energy>
   <i name="e_fr_energy">    -77.40954498 </i>
   <i name="e_wo_entrp">    -77.40954498 </i>
   <i name="e_0_energy">      0.00000000 </i>
  </energy>
  <time name="totalsc">    1.13    1.14</time>
 </calculation>
 <calculation>
  <scstep>
   <time name="dav">    0.18    0.18</time>
   <time name="total">    0.20    0.21</time>
   <energy>
    <i name="alphaZ">     68.42420636 </i>
    <i name="ewald">  -2732.13122584 </i>
    <i name="hartreedc">   -648.20779602 </i>
    <i name="XCdc">    185.52245455 </i>
    <i name="pawpsdc">   7346.31515422 </i>
    <i name="pawaedc">  -7396.28708502 </i>
    <i name="eentropy">      0.00000000 </i>
    <i name="bandstr">   -670.12995887 </i>
    <i name="atom">   3769.08782378 </i>
    <i name="e_fr_energy">    -77.40642684 </i>
    <i name="e_wo_entrp">    -77.40642684 </i>
    <i name="e_0_energy">    -77.40642684 </i>
   </energy>
  </scstep>
  <scstep>
   <time name="diag">    0.05    0.05</time>
   <time name="diis">    0.11    0.11</time>
   <time name="orth">    0.01    0.01</time>
   <time name="total">    0.19    0.19</time>
   <energy>
    <i name="e_fr_energy">    -77.41099927 </i>
    <i name="e_wo_entrp">    -77.41099927 </i>
    <i name="e_0_energy">    -77.41099927 </i>
   </energy>
  </scstep>
  <scstep>
   <time name="diag">    0.05    0.05</time>
   <time name="diis">    0.14    0.14</time>
   <time name="orth">    0.01    0.01</time>
   <time name="total">    0.23    0.23</time>
   <energy>
    <i name="e_fr_energy">    -77.41109525 </i>
    <i name="e_wo_entrp">    -77.41109525 </i>
    <i name="e_0_energy">    -77.41109525 </i>
   </energy>
  </scstep>
  <scstep>
   <time name="diag">    0.05    0.05</time>
   <time name="diis">    0.13    0.13</time>
   <time name="orth">    0.01    0.01</time>
   <time name="total">    0.21    0.21</time>
   <energy>
    <i name="e_fr_energy">    -77.41106950 </i>
    <i name="e_wo_entrp">    -77.41106950 </i>
    <i name="e_0_energy">    -77.41106950 </i>
   </energy>
  </scstep>
  <scstep>
   <time name="diag">    0.05    0.05</time>
   <time name="diis">    0.12    0.12</time>
   <time name="orth">    0.01    0.01</time>
   <time name="total">    0.20    0.20</time>
   <energy>
    <i name="e_fr_energy">    -77.41114320 </i>
    <i name="e_wo_entrp">    -77.41114320 </i>
    <i name="e_0_energy">    -77.41114320 </i>
   </energy>
  </scstep>
  <scstep>
   <time name="diag">    0.05    0.05</time>
   <time name="diis">    0.07    0.07</time>
   <time name="orth">    0.01    0.01</time>
   <time name="total">    0.13    0.13</time>
   <energy>
    <i name="alphaZ">     68.42420636 </i>
    <i name="ewald">  -2732.13122584 </i>
    <i name="hartreedc">   -648.32342893 </i>
    <i name="XCdc">    185.53019223 </i>
    <i name="pawpsdc">   7347.43224576 </i>
    <i name="pawaedc">  -7397.40217510 </i>
    <i name="eentropy">      0.00000000 </i>
    <i name="bandstr">   -670.02877981 </i>
    <i name="atom">   3769.08782378 </i>
    <i name="e_fr_energy">    -77.41114156 </i>
    <i name="e_wo_entrp">    -77.41114156 </i>
    <i name="e_0_energy">    -77.41114156 </i>
   </energy>
  </scstep>
  <structure>
   <crystal>
    <varray name="basis" >
     <v>       7.48039341       0.00000000       0.00000000 </v>
     <v>       0.00000000       6.41391422       0.00000000 </v>
     <v>       0.00000000       0.00000000       6.01083548 </v>
    </varray>
    <i name="volume">    288.39148106 </i>
    <varray name="rec_basis" >
     <v>       0.13368281       0.00000000       0.00000000 </v>
     <v>       0.00000000       0.15591103       0.00000000 </v>
     <v>       0.00000000       0.00000000       0.16636622 </v>
    </varray>
   </crystal>
   <varray name="positions" >
    <v>       0.00000000       0.31436009       0.28214208 </v>
    <v>       0.50000000       0.68563991       0.78214208 </v>
    <v>       0.22314830       0.16453800       0.17181096 </v>
    <v>       0.27685170       0.83546200       0.67181096 </v>
    <v>       0.72314830       0.83546200       0.67181096 </v>
    <v>       0.77685170       0.16453800       0.17181096 </v>
    <v>       0.00000000       0.61168760       0.16496052 </v>
    <v>       0.50000000       0.38831240       0.66496052 </v>
    <v>       0.00000000       0.31054060       0.62033767 </v>
    <v>       0.50000000       0.68945940       0.12033767 </v>
    <v>       0.00000000       0.65136569       0.76715820 </v>
    <v>       0.50000000       0.34863431       0.26715820 </v>
    <v>       0.25880569       0.18701424       0.78406899 </v>
    <v>       0.24119431       0.81298576       0.28406899 </v>
    <v>       0.75880569       0.81298576       0.28406899 </v>
    <v>       0.74119431       0.18701424       0.78406899 </v>
   </varray>
  </structure>
  <varray name="forces" >
   <v>       0.00000000       0.03974198      -0.06105136 </v>
   <v>       0.00000000      -0.03974198      -0.06105136 </v>
   <v>      -0.01665736       0.00637442       0.01719961 </v>
   <v>       0.01665736      -0.00637442       0.01719961 </v>
   <v>      -0.01665736      -0.00637442       0.01719961 </v>
   <v>       0.01665736       0.00637442       0.01719961 </v>
   <v>       0.00000000      -0.00526940      -0.02041804 </v>
   <v>       0.00000000       0.00526940      -0.02041804 </v>
   <v>       0.00000000      -0.01500348       0.05678425 </v>
   <v>       0.00000000       0.01500348       0.05678425 </v>
   <v>       0.00000000      -0.00193495       0.00678814 </v>
   <v>       0.00000000       0.00193495       0.00678814 </v>
   <v>       0.00562076       0.00289656      -0.00825111 </v>
   <v>      -0.00562076      -0.00289656      -0.00825111 </v>
   <v>       0.00562076      -0.00289656      -0.00825111 </v>
   <v>      -0.00562076       0.00289656      -0.00825111 </v>
  </varray>
  <varray name="stress" >
   <v>      -0.44204724       0.00000000       0.00000000 </v>
   <v>       0.00000000      -0.88202636       0.00000000 </v>
   <v>       0.00000000       0.00000000       1.16272827 </v>
  </varray>
  <energy>
   <i name="e_fr_energy">    -77.41114156 </i>
   <i name="e_wo_entrp">    -77.41114156 </i>
   <i name="e_0_energy">      0.00000000 </i>
  </energy>
  <time name="totalsc">    1.36    1.38</time>
 </calculation>
 <calculation>
  <scstep>
   <time name="dav">    0.18    0.18</time>
   <time name="total">    0.21    0.21</time>
   <energy>
    <i name="alphaZ">     68.42770200 </i>
    <i name="ewald">  -2732.14633305 </i>
    <i name="hartreedc">   -648.39698671 </i>
    <i name="XCdc">    185.53330604 </i>
    <i name="pawpsdc">   7347.63289097 </i>
    <i name="pawaedc">  -7397.60386642 </i>
    <i name="eentropy">      0.00000000 </i>
    <i name="bandstr">   -669.94444704 </i>
    <i name="atom">   3769.08782378 </i>
    <i name="e_fr_energy">    -77.40991043 </i>
    <i name="e_wo_entrp">    -77.40991043 </i>
    <i name="e_0_energy">    -77.40991043 </i>
   </energy>
  </scstep>
  <scstep>
   <time name="diag">    0.05    0.05</time>
   <time name="diis">    0.11    0.11</time>
   <time name="orth">    0.01    0.01</time>
   <time name="total">    0.19    0.19</time>
   <energy>
    <i name="e_fr_energy">    -77.41119946 </i>
    <i name="e_wo_entrp">    -77.41119946 </i>
    <i name="e_0_energy">    -77.41119946 </i>
   </energy>
  </scstep>
  <scstep>
   <time name="diag">    0.05    0.05</time>
   <time name="diis">    0.13    0.13</time>
   <time name="orth">    0.01    0.01</time>
   <time name="total">    0.21    0.21</time>
   <energy>
    <i name="e_fr_energy">    -77.41101878 </i>
    <i name="e_wo_entrp">    -77.41101878 </i>
    <i name="e_0_energy">    -77.41101878 </i>
   </energy>
  </scstep>
  <scstep>
   <time name="diag">    0.05    0.05</time>
   <time name="diis">    0.12    0.12</time>
   <time name="orth">    0.01    0.01</time>
   <time name="total">    0.20    0.20</time>
   <energy>
    <i name="e_fr_energy">    -77.41097865 </i>
    <i name="e_wo_entrp">    -77.41097865 </i>
    <i name="e_0_energy">    -77.41097865 </i>
   </energy>
  </scstep>
  <scstep>
   <time name="diag">    0.05    0.05</time>
   <time name="diis">    0.08    0.08</time>
   <time name="orth">    0.01    0.01</time>
   <time name="total">    0.14    0.14</time>
   <energy>
    <i name="alphaZ">     68.42770200 </i>
    <i name="ewald">  -2732.14633305 </i>
    <i name="hartreedc">   -648.36372384 </i>
    <i name="XCdc">    185.53079139 </i>
    <i name="pawpsdc">   7347.04417786 </i>
    <i name="pawaedc">  -7397.01262036 </i>
    <i name="eentropy">      0.00000000 </i>
    <i name="bandstr">   -669.97880029 </i>
    <i name="atom">   3769.08782378 </i>
    <i name="e_fr_energy">    -77.41098251 </i>
    <i name="e_wo_entrp">    -77.41098251 </i>
    <i name="e_0_energy">    -77.41098251 </i>
   </energy>
  </scstep>
  <structure>
   <crystal>
    <varray name="basis" >
     <v>       7.47787170       0.00000000       0.00000000 </v>
     <v>       0.00000000       6.41046469       0.00000000 </v>
     <v>       0.00000000       0.00000000       6.01579071 </v>
    </varray>
    <i name="volume">    288.37674854 </i>
    <varray name="rec_basis" >
     <v>       0.13372789       0.00000000       0.00000000 </v>
     <v>       0.00000000       0.15599493       0.00000000 </v>
     <v>       0.00000000       0.00000000       0.16622919 </v>
    </varray>
   </crystal>
   <varray name="positions" >
    <v>       0.00000000       0.31493094       0.28150658 </v>
    <v>       0.50000000       0.68506906       0.78150658 </v>
    <v>       0.22302216       0.16486718       0.17185608 </v>
    <v>       0.27697784       0.83513282       0.67185608 </v>
    <v>       0.72302216       0.83513282       0.67185608 </v>
    <v>       0.77697784       0.16486718       0.17185608 </v>
    <v>       0.00000000       0.61189420       0.16499752 </v>
    <v>       0.50000000       0.38810580       0.66499752 </v>
    <v>       0.00000000       0.31069960       0.62085850 </v>
    <v>       0.50000000       0.68930040       0.12085850 </v>
    <v>       0.00000000       0.65119404       0.76711181 </v>
    <v>       0.50000000       0.34880596       0.26711181 </v>
    <v>       0.25915682       0.18733376       0.78408590 </v>
    <v>       0.24084318       0.81266624       0.28408590 </v>
    <v>       0.75915682       0.81266624       0.28408590 </v>
    <v>       0.74084318       0.18733376       0.78408590 </v>
   </varray>
  </structure>
  <varray name="forces" >
   <v>       0.00000000      -0.00642592       0.09771812 </v>
   <v>       0.00000000       0.00642592       0.09771812 </v>
   <v>       0.00974884      -0.01115582       0.00669477 </v>
   <v>      -0.00974884       0.01115582       0.00669477 </v>
   <v>       0.00974884       0.01115582       0.00669477 </v>
   <v>      -0.00974884      -0.01115582       0.00669477 </v>
   <v>       0.00000000       0.04609411      -0.04456898 </v>
   <v>       0.00000000      -0.04609411      -0.04456898 </v>
   <v>       0.00000000      -0.01604938      -0.06965605 </v>
   <v>       0.00000000       0.01604938      -0.06965605 </v>
   <v>       0.00000000       0.00271712       0.00961936 </v>
   <v>       0.00000000      -0.00271712       0.00961936 </v>
   <v>      -0.01034794      -0.01010003      -0.00325100 </v>
   <v>       0.01034794       0.01010003      -0.00325100 </v>
   <v>      -0.01034794       0.01010003      -0.00325100 </v>
   <v>       0.01034794      -0.01010003      -0.00325100 </v>
  </varray>
  <varray name="stress" >
   <v>       0.84887907       0.00000000       0.00000000 </v>
   <v>       0.00000000       0.65248203       0.00000000 </v>
   <v>       0.00000000       0.00000000      -1.69693320 </v>
  </varray>
  <energy>
   <i name="e_fr_energy">    -77.41098251 </i>
   <i name="e_wo_entrp">    -77.41098251 </i>
   <i name="e_0_energy">      0.00000000 </i>
  </energy>
  <time name="totalsc">    1.15    1.16</time>
 </calculation>
 <calculation>
  <scstep>
   <time name="dav">    0.19    0.19</time>
   <time name="total">    0.21    0.21</time>
   <energy>
    <i name="alphaZ">     68.42579385 </i>
    <i name="ewald">  -2732.14244938 </i>
    <i name="hartreedc">   -648.32355863 </i>
    <i name="XCdc">    185.52950141 </i>
    <i name="pawpsdc">   7346.70769927 </i>
    <i name="pawaedc">  -7396.67669546 </i>
    <i name="eentropy">      0.00000000 </i>
    <i name="bandstr">   -670.01940947 </i>
    <i name="atom">   3769.08782378 </i>
    <i name="e_fr_energy">    -77.41129461 </i>
    <i name="e_wo_entrp">    -77.41129461 </i>
    <i name="e_0_energy">    -77.41129461 </i>
   </energy>
  </scstep>
  <scstep>
   <time name="diag">    0.05    0.05</time>
   <time name="diis">    0.11    0.11</time>
   <time name="orth">    0.01    0.01</time>
   <time name="total">    0.19    0.19</time>
   <energy>
    <i name="e_fr_energy">    -77.41167228 </i>
    <i name="e_wo_entrp">    -77.41167228 </i>
    <i name="e_0_energy">    -77.41167228 </i>
   </energy>
  </scstep>
  <scstep>
   <time name="diag">    0.05    0.05</time>
   <time name="diis">    0.11    0.11</time>
   <time name="orth">    0.01    0.01</time>
   <time name="total">    0.19    0.19</time>
   <energy>
    <i name="e_fr_energy">    -77.41155520 </i>
    <i name="e_wo_entrp">    -77.41155520 </i>
    <i name="e_0_energy">    -77.41155520 </i>
   </energy>
  </scstep>
  <scstep>
   <time name="diag">    0.05    0.05</time>
   <time name="diis">    0.10    0.10</time>
   <time name="orth">    0.01    0.01</time>
   <time name="total">    0.16    0.16</time>
   <energy>
    <i name="alphaZ">     68.42579385 </i>
    <i name="ewald">  -2732.14244938 </i>
    <i name="hartreedc">   -648.34452140 </i>
    <i name="XCdc">    185.53108308 </i>
    <i name="pawpsdc">   7346.98563117 </i>
    <i name="pawaedc">  -7396.95501875 </i>
    <i name="eentropy">      0.00000000 </i>
    <i name="bandstr">   -669.99987763 </i>
    <i name="atom">   3769.08782378 </i>
    <i name="e_fr_energy">    -77.41153527 </i>
    <i name="e_wo_entrp">    -77.41153527 </i>
    <i name="e_0_energy">    -77.41153527 </i>
   </energy>
  </scstep>
  <structure>
   <crystal>
    <varray name="basis" >
     <v>       7.47924157       0.00000000       0.00000000 </v>
     <v>       0.00000000       6.41233858       0.00000000 </v>
     <v>       0.00000000       0.00000000       6.01309888 </v>
    </varray>
    <i name="volume">    288.38479031 </i>
    <varray name="rec_basis" >
     <v>       0.13370340       0.00000000       0.00000000 </v>
     <v>       0.00000000       0.15594934       0.00000000 </v>
     <v>       0.00000000       0.00000000       0.16630360 </v>
    </varray>
   </crystal>
   <varray name="positions" >
    <v>       0.00000000       0.31462067       0.28185152 </v>
    <v>       0.50000000       0.68537933       0.78185152 </v>
    <v>       0.22309070       0.16468826       0.17183159 </v>
    <v>       0.27690930       0.83531174       0.67183159 </v>
    <v>       0.72309070       0.83531174       0.67183159 </v>
    <v>       0.77690930       0.16468826       0.17183159 </v>
    <v>       0.00000000       0.61178191       0.16497743 </v>
    <v>       0.50000000       0.38821809       0.66497743 </v>
    <v>       0.00000000       0.31061318       0.62057580 </v>
    <v>       0.50000000       0.68938682       0.12057580 </v>
    <v>       0.00000000       0.65128733       0.76713699 </v>
    <v>       0.50000000       0.34871267       0.26713699 </v>
    <v>       0.25896601       0.18716010       0.78407672 </v>
    <v>       0.24103399       0.81283990       0.28407672 </v>
    <v>       0.75896601       0.81283990       0.28407672 </v>
    <v>       0.74103399       0.18716010       0.78407672 </v>
   </varray>
  </structure>
  <varray name="forces" >
   <v>       0.00000000       0.02027037       0.01465152 </v>
   <v>       0.00000000      -0.02027037       0.01465152 </v>
   <v>      -0.00366716      -0.00126081       0.01097397 </v>
   <v>       0.00366716       0.00126081       0.01097397 </v>
   <v>      -0.00366716       0.00126081       0.01097397 </v>
   <v>       0.00366716      -0.00126081       0.01097397 </v>
   <v>       0.00000000       0.01648700      -0.03344455 </v>
   <v>       0.00000000      -0.01648700      -0.03344455 </v>
   <v>       0.00000000      -0.01620788      -0.00361709 </v>
   <v>       0.00000000       0.01620788      -0.00361709 </v>
   <v>       0.00000000      -0.00039514       0.00978377 </v>
   <v>       0.00000000       0.00039514       0.00978377 </v>
   <v>      -0.00367105      -0.00406167      -0.00466079 </v>
   <v>       0.00367105       0.00406167      -0.00466079 </v>
   <v>      -0.00367105       0.00406167      -0.00466079 </v>
   <v>       0.00367105      -0.00406167      -0.00466079 </v>
  </varray>
  <varray name="stress" >
   <v>       0.16678652       0.00000000       0.00000000 </v>
   <v>       0.00000000      -0.12384305       0.00000000 </v>
   <v>       0.00000000       0.00000000      -0.28237410 </v>
  </varray>
  <energy>
   <i name="e_fr_energy">    -77.41153527 </i>
   <i name="e_wo_entrp">    -77.41153527 </i>
   <i name="e_0_energy">      0.00000000 </i>
  </energy>
  <time name="totalsc">    0.95    0.97</time>
 </calculation>
 <calculation>
  <scstep>
   <time name="dav">    0.19    0.19</time>
   <time name="total">    0.22    0.22</time>
   <energy>
    <i name="alphaZ">     68.43734865 </i>
    <i name="ewald">  -2732.40718638 </i>
    <i name="hartreedc">   -648.29966683 </i>
    <i name="XCdc">    185.53998967 </i>
    <i name="pawpsdc">   7347.07356677 </i>
    <i name="pawaedc">  -7397.04301465 </i>
    <i name="eentropy">      0.00000000 </i>
    <i name="bandstr">   -669.80058371 </i>
    <i name="atom">   3769.08782378 </i>
    <i name="e_fr_energy">    -77.41172270 </i>
    <i name="e_wo_entrp">    -77.41172270 </i>
    <i name="e_0_energy">    -77.41172270 </i>
   </energy>
  </scstep>
  <scstep>
   <time name="diag">    0.05    0.05</time>
   <time name="diis">    0.11    0.11</time>
   <time name="orth">    0.01    0.01</time>
   <time name="total">    0.19    0.21</time>
   <energy>
    <i name="e_fr_energy">    -77.41181110 </i>
    <i name="e_wo_entrp">    -77.41181110 </i>
    <i name="e_0_energy">    -77.41181110 </i>
   </energy>
  </scstep>
  <scstep>
   <time name="diag">    0.05    0.05</time>
   <time name="diis">    0.06    0.06</time>
   <time name="orth">    0.01    0.01</time>
   <time name="total">    0.14    0.14</time>
   <energy>
    <i name="e_fr_energy">    -77.41178446 </i>
    <i name="e_wo_entrp">    -77.41178446 </i>
    <i name="e_0_energy">    -77.41178446 </i>
   </energy>
  </scstep>
  <scstep>
   <time name="diag">    0.05    0.05</time>
   <time name="diis">    0.05    0.05</time>
   <time name="orth">    0.01    0.01</time>
   <time name="total">    0.11    0.11</time>
   <energy>
    <i name="alphaZ">     68.43734865 </i>
    <i name="ewald">  -2732.40718638 </i>
    <i name="hartreedc">   -648.20243643 </i>
    <i name="XCdc">    185.53323169 </i>
    <i name="pawpsdc">   7347.43189443 </i>
    <i name="pawaedc">  -7397.40003356 </i>
    <i name="eentropy">      0.00000000 </i>
    <i name="bandstr">   -669.89242324 </i>
    <i name="atom">   3769.08782378 </i>
    <i name="e_fr_energy">    -77.41178105 </i>
    <i name="e_wo_entrp">    -77.41178105 </i>
    <i name="e_0_energy">    -77.41178105 </i>
   </energy>
  </scstep>
  <structure>
   <crystal>
    <varray name="basis" >
     <v>       7.47972650       0.00000000       0.00000000 </v>
     <v>       0.00000000       6.41131354       0.00000000 </v>
     <v>       0.00000000       0.00000000       6.01265501 </v>
    </varray>
    <i name="volume">    288.33610010 </i>
    <varray name="rec_basis" >
     <v>       0.13369473       0.00000000       0.00000000 </v>
     <v>       0.00000000       0.15597428       0.00000000 </v>
     <v>       0.00000000       0.00000000       0.16631588 </v>
    </varray>
   </crystal>
   <varray name="positions" >
    <v>       0.00000000       0.31489134       0.28190773 </v>
    <v>       0.50000000       0.68510866       0.78190773 </v>
    <v>       0.22304339       0.16472313       0.17194753 </v>
    <v>       0.27695661       0.83527687       0.67194753 </v>
    <v>       0.72304339       0.83527687       0.67194753 </v>
    <v>       0.77695661       0.16472313       0.17194753 </v>
    <v>       0.00000000       0.61196552       0.16464884 </v>
    <v>       0.50000000       0.38803448       0.66464884 </v>
    <v>       0.00000000       0.31048401       0.62061349 </v>
    <v>       0.50000000       0.68951599       0.12061349 </v>
    <v>       0.00000000       0.65125930       0.76722808 </v>
    <v>       0.50000000       0.34874070       0.26722808 </v>
    <v>       0.25898633       0.18716738       0.78403259 </v>
    <v>       0.24101367       0.81283262       0.28403259 </v>
    <v>       0.75898633       0.81283262       0.28403259 </v>
    <v>       0.74101367       0.18716738       0.78403259 </v>
   </varray>
  </structure>
  <varray name="forces" >
   <v>       0.00000000       0.00121875       0.00394955 </v>
   <v>       0.00000000      -0.00121875       0.00394955 </v>
   <v>      -0.00365908       0.00541914       0.00827833 </v>
   <v>       0.00365908      -0.00541914       0.00827833 </v>
   <v>      -0.00365908      -0.00541914       0.00827833 </v>
   <v>       0.00365908       0.00541914       0.00827833 </v>
   <v>       0.00000000       0.01517707      -0.01965337 </v>
   <v>       0.00000000      -0.01517707      -0.01965337 </v>
   <v>       0.00000000      -0.00527348       0.00190244 </v>
   <v>       0.00000000       0.00527348       0.00190244 </v>
   <v>       0.00000000       0.00102893       0.00152895 </v>
   <v>       0.00000000      -0.00102893       0.00152895 </v>
   <v>      -0.00306992      -0.00575467      -0.00214211 </v>
   <v>       0.00306992       0.00575467      -0.00214211 </v>
   <v>      -0.00306992       0.00575467      -0.00214211 </v>
   <v>       0.00306992      -0.00575467      -0.00214211 </v>
  </varray>
  <varray name="stress" >
   <v>       0.14968037       0.00000000       0.00000000 </v>
   <v>       0.00000000      -0.26183898       0.00000000 </v>
   <v>       0.00000000       0.00000000      -0.14543435 </v>
  </varray>
  <energy>
   <i name="e_fr_energy">    -77.41178105 </i>
   <i name="e_wo_entrp">    -77.41178105 </i>
   <i name="e_0_energy">      0.00000000 </i>
  </energy>
  <time name="totalsc">    0.85    0.88</time>
 </calculation>
 <calculation>
  <scstep>
   <time name="dav">    0.18    0.18</time>
   <time name="total">    0.21    0.21</time>
   <energy>
    <i name="alphaZ">     68.45011369 </i>
    <i name="ewald">  -2732.69944686 </i>
    <i name="hartreedc">   -648.14705596 </i>
    <i name="XCdc">    185.54256085 </i>
    <i name="pawpsdc">   7347.13992198 </i>
    <i name="pawaedc">  -7397.10819565 </i>
    <i name="eentropy">      0.00000000 </i>
    <i name="bandstr">   -669.67751700 </i>
    <i name="atom">   3769.08782378 </i>
    <i name="e_fr_energy">    -77.41179517 </i>
    <i name="e_wo_entrp">    -77.41179517 </i>
    <i name="e_0_energy">    -77.41179517 </i>
   </energy>
  </scstep>
  <scstep>
   <time name="diag">    0.05    0.05</time>
   <time name="diis">    0.10    0.10</time>
   <time name="orth">    0.01    0.01</time>
   <time name="total">    0.18    0.18</time>
   <energy>
    <i name="e_fr_energy">    -77.41189496 </i>
    <i name="e_wo_entrp">    -77.41189496 </i>
    <i name="e_0_energy">    -77.41189496 </i>
   </energy>
  </scstep>
  <scstep>
   <time name="diag">    0.05    0.05</time>
   <time name="diis">    0.07    0.07</time>
   <time name="orth">    0.01    0.01</time>
   <time name="total">    0.15    0.15</time>
   <energy>
    <i name="e_fr_energy">    -77.41187428 </i>
    <i name="e_wo_entrp">    -77.41187428 </i>
    <i name="e_0_energy">    -77.41187428 </i>
   </energy>
  </scstep>
  <scstep>
   <time name="diag">    0.05    0.05</time>
   <time name="diis">    0.05    0.05</time>
   <time name="orth">    0.01    0.01</time>
   <time name="total">    0.11    0.11</time>
   <energy>
    <i name="alphaZ">     68.45011369 </i>
    <i name="ewald">  -2732.69944686 </i>
    <i name="hartreedc">   -648.04157948 </i>
    <i name="XCdc">    185.53504461 </i>
    <i name="pawpsdc">   7346.83600710 </i>
    <i name="pawaedc">  -7396.80207329 </i>
    <i name="eentropy">      0.00000000 </i>
    <i name="bandstr">   -669.77775902 </i>
    <i name="atom">   3769.08782378 </i>
    <i name="e_fr_energy">    -77.41186947 </i>
    <i name="e_wo_entrp">    -77.41186947 </i>
    <i name="e_0_energy">    -77.41186947 </i>
   </energy>
  </scstep>
  <structure>
   <crystal>
    <varray name="basis" >
     <v>       7.48026200       0.00000000       0.00000000 </v>
     <v>       0.00000000       6.41018160       0.00000000 </v>
     <v>       0.00000000       0.00000000       6.01216484 </v>
    </varray>
    <i name="volume">    288.28232924 </i>
    <varray name="rec_basis" >
     <v>       0.13368516       0.00000000       0.00000000 </v>
     <v>       0.00000000       0.15600182       0.00000000 </v>
     <v>       0.00000000       0.00000000       0.16632944 </v>
    </varray>
   </crystal>
   <varray name="positions" >
    <v>       0.00000000       0.31519029       0.28196980 </v>
    <v>       0.50000000       0.68480971       0.78196980 </v>
    <v>       0.22299115       0.16476164       0.17207556 </v>
    <v>       0.27700885       0.83523836       0.67207556 </v>
    <v>       0.72299115       0.83523836       0.67207556 </v>
    <v>       0.77700885       0.16476164       0.17207556 </v>
    <v>       0.00000000       0.61216832       0.16428594 </v>
    <v>       0.50000000       0.38783168       0.66428594 </v>
    <v>       0.00000000       0.31034135       0.62065511 </v>
    <v>       0.50000000       0.68965865       0.12065511 </v>
    <v>       0.00000000       0.65122834       0.76732867 </v>
    <v>       0.50000000       0.34877166       0.26732867 </v>
    <v>       0.25900876       0.18717542       0.78398386 </v>
    <v>       0.24099124       0.81282458       0.28398386 </v>
    <v>       0.75900876       0.81282458       0.28398386 </v>
    <v>       0.74099124       0.18717542       0.78398386 </v>
   </varray>
  </structure>
  <varray name="forces" >
   <v>       0.00000000      -0.01877118      -0.00560558 </v>
   <v>       0.00000000       0.01877118      -0.00560558 </v>
   <v>      -0.00290389       0.01154750       0.00515745 </v>
   <v>       0.00290389      -0.01154750       0.00515745 </v>
   <v>      -0.00290389      -0.01154750       0.00515745 </v>
   <v>       0.00290389       0.01154750       0.00515745 </v>
   <v>       0.00000000       0.01258153      -0.00726304 </v>
   <v>       0.00000000      -0.01258153      -0.00726304 </v>
   <v>       0.00000000       0.00441408       0.00402748 </v>
   <v>       0.00000000      -0.00441408       0.00402748 </v>
   <v>       0.00000000       0.00126458      -0.00495513 </v>
   <v>       0.00000000      -0.00126458      -0.00495513 </v>
   <v>      -0.00179827      -0.00693189       0.00174068 </v>
   <v>       0.00179827       0.00693189       0.00174068 </v>
   <v>      -0.00179827       0.00693189       0.00174068 </v>
   <v>       0.00179827      -0.00693189       0.00174068 </v>
  </varray>
  <varray name="stress" >
   <v>       0.17494775       0.00000000       0.00000000 </v>
   <v>       0.00000000      -0.37161207       0.00000000 </v>
   <v>       0.00000000       0.00000000      -0.04664436 </v>
  </varray>
  <energy>
   <i name="e_fr_energy">    -77.41186947 </i>
   <i name="e_wo_entrp">    -77.41186947 </i>
   <i name="e_0_energy">      0.00000000 </i>
  </energy>
  <time name="totalsc">    0.86    0.87</time>
 </calculation>
 <calculation>
  <scstep>
   <time name="dav">    0.19    0.19</time>
   <time name="total">    0.21    0.22</time>
   <energy>
    <i name="alphaZ">     68.46958715 </i>
    <i name="ewald">  -2733.01129600 </i>
    <i name="hartreedc">   -648.05238074 </i>
    <i name="XCdc">    185.55265605 </i>
    <i name="pawpsdc">   7346.40839680 </i>
    <i name="pawaedc">  -7396.37425969 </i>
    <i name="eentropy">      0.00000000 </i>
    <i name="bandstr">   -669.49237512 </i>
    <i name="atom">   3769.08782378 </i>
    <i name="e_fr_energy">    -77.41184778 </i>
    <i name="e_wo_entrp">    -77.41184778 </i>
    <i name="e_0_energy">    -77.41184778 </i>
   </energy>
  </scstep>
  <scstep>
   <time name="diag">    0.05    0.05</time>
   <time name="diis">    0.11    0.11</time>
   <time name="orth">    0.01    0.01</time>
   <time name="total">    0.19    0.19</time>
   <energy>
    <i name="e_fr_energy">    -77.41193014 </i>
    <i name="e_wo_entrp">    -77.41193014 </i>
    <i name="e_0_energy">    -77.41193014 </i>
   </energy>
  </scstep>
  <scstep>
   <time name="diag">    0.05    0.05</time>
   <time name="diis">    0.09    0.09</time>
   <time name="orth">    0.01    0.01</time>
   <time name="total">    0.15    0.15</time>
   <energy>
    <i name="alphaZ">     68.46958715 </i>
    <i name="ewald">  -2733.01129600 </i>
    <i name="hartreedc">   -647.93405201 </i>
    <i name="XCdc">    185.54391722 </i>
    <i name="pawpsdc">   7348.72618077 </i>
    <i name="pawaedc">  -7398.69080192 </i>
    <i name="eentropy">      0.00000000 </i>
    <i name="bandstr">   -669.60327745 </i>
    <i name="atom">   3769.08782378 </i>
    <i name="e_fr_energy">    -77.41191846 </i>
    <i name="e_wo_entrp">    -77.41191846 </i>
    <i name="e_0_energy">    -77.41191846 </i>
   </energy>
  </scstep>
  <structure>
   <crystal>
    <varray name="basis" >
     <v>       7.48158131       0.00000000       0.00000000 </v>
     <v>       0.00000000       6.40770965       0.00000000 </v>
     <v>       0.00000000       0.00000000       6.01171332 </v>
    </varray>
    <i name="volume">    288.20033877 </i>
    <varray name="rec_basis" >
     <v>       0.13366158       0.00000000       0.00000000 </v>
     <v>       0.00000000       0.15606200       0.00000000 </v>
     <v>       0.00000000       0.00000000       0.16634193 </v>
    </varray>
   </crystal>
   <varray name="positions" >
    <v>       0.00000000       0.31511019       0.28192940 </v>
    <v>       0.50000000       0.68488981       0.78192940 </v>
    <v>       0.22293921       0.16491097       0.17219601 </v>
    <v>       0.27706079       0.83508903       0.67219601 </v>
    <v>       0.72293921       0.83508903       0.67219601 </v>
    <v>       0.77706079       0.16491097       0.17219601 </v>
    <v>       0.00000000       0.61240338       0.16403419 </v>
    <v>       0.50000000       0.38759662       0.66403419 </v>
    <v>       0.00000000       0.31032763       0.62072292 </v>
    <v>       0.50000000       0.68967237       0.12072292 </v>
    <v>       0.00000000       0.65122886       0.76731353 </v>
    <v>       0.50000000       0.34877114       0.26731353 </v>
    <v>       0.25900124       0.18709979       0.78398316 </v>
    <v>       0.24099876       0.81290021       0.28398316 </v>
    <v>       0.75900124       0.81290021       0.28398316 </v>
    <v>       0.74099876       0.18709979       0.78398316 </v>
   </varray>
  </structure>
  <varray name="forces" >
   <v>       0.00000000       0.02433716       0.00470641 </v>
   <v>       0.00000000      -0.02433716       0.00470641 </v>
   <v>       0.01033851      -0.00031956      -0.00684228 </v>
   <v>      -0.01033851       0.00031956      -0.00684228 </v>
   <v>       0.01033851       0.00031956      -0.00684228 </v>
   <v>      -0.01033851      -0.00031956      -0.00684228 </v>
   <v>       0.00000000      -0.01178310       0.01334038 </v>
   <v>       0.00000000       0.01178310       0.01334038 </v>
   <v>       0.00000000       0.00589430      -0.00264826 </v>
   <v>       0.00000000      -0.00589430      -0.00264826 </v>
   <v>       0.00000000       0.00092815      -0.00536216 </v>
   <v>       0.00000000      -0.00092815      -0.00536216 </v>
   <v>      -0.00168550      -0.00383439       0.00182410 </v>
   <v>       0.00168550       0.00383439       0.00182410 </v>
   <v>      -0.00168550       0.00383439       0.00182410 </v>
   <v>       0.00168550      -0.00383439       0.00182410 </v>
  </varray>
  <varray name="stress" >
   <v>       0.64015607       0.00000000       0.00000000 </v>
   <v>       0.00000000      -0.56795833       0.00000000 </v>
   <v>       0.00000000       0.00000000      -0.12147168 </v>
  </varray>
  <energy>
   <i name="e_fr_energy">    -77.41191846 </i>
   <i name="e_wo_entrp">    -77.41191846 </i>
   <i name="e_0_energy">      0.00000000 </i>
  </energy>
  <time name="totalsc">    0.75    0.76</time>
 </calculation>
 <calculation>
  <scstep>
   <time name="dav">    0.19    0.19</time>
   <time name="total">    0.21    0.21</time>
   <energy>
    <i name="alphaZ">     68.46425725 </i>
    <i name="ewald">  -2732.92606170 </i>
    <i name="hartreedc">   -647.90243364 </i>
    <i name="XCdc">    185.53681919 </i>
    <i name="pawpsdc">   7348.86306289 </i>
    <i name="pawaedc">  -7398.82773077 </i>
    <i name="eentropy">      0.00000000 </i>
    <i name="bandstr">   -669.70765990 </i>
    <i name="atom">   3769.08782378 </i>
    <i name="e_fr_energy">    -77.41192291 </i>
    <i name="e_wo_entrp">    -77.41192291 </i>
    <i name="e_0_energy">    -77.41192291 </i>
   </energy>
  </scstep>
  <scstep>
   <time name="diag">    0.05    0.05</time>
   <time name="diis">    0.08    0.08</time>
   <time name="orth">    0.01    0.01</time>
   <time name="total">    0.14    0.14</time>
   <energy>
    <i name="alphaZ">     68.46425725 </i>
    <i name="ewald">  -2732.92606170 </i>
    <i name="hartreedc">   -647.92463880 </i>
    <i name="XCdc">    185.53835729 </i>
    <i name="pawpsdc">   7348.11244854 </i>
    <i name="pawaedc">  -7398.07748437 </i>
    <i name="eentropy">      0.00000000 </i>
    <i name="bandstr">   -669.68663426 </i>
    <i name="atom">   3769.08782378 </i>
    <i name="e_fr_energy">    -77.41193227 </i>
    <i name="e_wo_entrp">    -77.41193227 </i>
    <i name="e_0_energy">    -77.41193227 </i>
   </energy>
  </scstep>
  <structure>
   <crystal>
    <varray name="basis" >
     <v>       7.48122033       0.00000000       0.00000000 </v>
     <v>       0.00000000       6.40838600       0.00000000 </v>
     <v>       0.00000000       0.00000000       6.01183686 </v>
    </varray>
    <i name="volume">    288.22277500 </i>
    <varray name="rec_basis" >
     <v>       0.13366803       0.00000000       0.00000000 </v>
     <v>       0.00000000       0.15604553       0.00000000 </v>
     <v>       0.00000000       0.00000000       0.16633851 </v>
    </varray>
   </crystal>
   <varray name="positions" >
    <v>       0.00000000       0.31513211       0.28194045 </v>
    <v>       0.50000000       0.68486789       0.78194045 </v>
    <v>       0.22295342       0.16487010       0.17216305 </v>
    <v>       0.27704658       0.83512990       0.67216305 </v>
    <v>       0.72295342       0.83512990       0.67216305 </v>
[...]
       <r>   -9.4142    1.0000 </r>
       <r>   -5.2515    1.0000 </r>
       <r>   -5.1597    1.0000 </r>
       <r>   -2.3456    1.0000 </r>
       <r>   -2.2862    1.0000 </r>
       <r>   -2.2249    1.0000 </r>
       <r>   -2.1749    1.0000 </r>
       <r>   -2.0187    1.0000 </r>
       <r>   -1.9753    1.0000 </r>
       <r>   -0.1977    1.0000 </r>
       <r>   -0.1336    1.0000 </r>
       <r>   -0.0095    1.0000 </r>
       <r>    0.0556    1.0000 </r>
       <r>    0.3828    1.0000 </r>
       <r>    0.4363    1.0000 </r>
       <r>    0.8972    1.0000 </r>
       <r>    0.9504    1.0000 </r>
       <r>    1.0298    1.0000 </r>
       <r>    1.2605    1.0000 </r>
       <r>    1.5708    1.0000 </r>
       <r>    1.7177    1.0000 </r>
       <r>    1.7437    1.0000 </r>
       <r>    1.8820    1.0000 </r>
       <r>    2.0331    1.0000 </r>
       <r>    2.0682    1.0000 </r>
       <r>    5.0782    0.0000 </r>
       <r>    5.2932    0.0000 </r>
       <r>    6.3354    0.0000 </r>
       <r>    6.4613    0.0000 </r>
       <r>    6.6150    0.0000 </r>
       <r>    6.8104    0.0000 </r>
       <r>    6.8631    0.0000 </r>
       <r>    6.9756    0.0000 </r>
       <r>    8.2129    0.0000 </r>
       <r>    8.4613    0.0000 </r>
      </set>
      <set comment="kpoint 8">
       <r>  -41.0180    1.0000 </r>
       <r>  -41.0180    1.0000 </r>
       <r>  -40.7074    1.0000 </r>
       <r>  -40.7073    1.0000 </r>
       <r>  -40.7069    1.0000 </r>
       <r>  -40.7067    1.0000 </r>
       <r>  -12.5102    1.0000 </r>
       <r>  -12.4974    1.0000 </r>
       <r>   -9.6089    1.0000 </r>
       <r>   -9.5683    1.0000 </r>
       <r>   -9.5448    1.0000 </r>
       <r>   -9.4754    1.0000 </r>
       <r>   -9.4405    1.0000 </r>
       <r>   -9.4128    1.0000 </r>
       <r>   -5.1602    1.0000 </r>
       <r>   -5.1217    1.0000 </r>
       <r>   -2.3944    1.0000 </r>
       <r>   -2.3595    1.0000 </r>
       <r>   -2.1598    1.0000 </r>
       <r>   -2.1523    1.0000 </r>
       <r>   -1.9753    1.0000 </r>
       <r>   -1.9542    1.0000 </r>
       <r>   -0.3173    1.0000 </r>
       <r>   -0.2253    1.0000 </r>
       <r>   -0.0770    1.0000 </r>
       <r>   -0.0187    1.0000 </r>
       <r>    0.5123    1.0000 </r>
       <r>    0.5663    1.0000 </r>
       <r>    0.8093    1.0000 </r>
       <r>    0.9085    1.0000 </r>
       <r>    1.0237    1.0000 </r>
       <r>    1.1262    1.0000 </r>
       <r>    1.5250    1.0000 </r>
       <r>    1.5974    1.0000 </r>
       <r>    1.7571    1.0000 </r>
       <r>    1.8135    1.0000 </r>
       <r>    2.0103    1.0000 </r>
       <r>    2.0841    1.0000 </r>
       <r>    5.3953    0.0000 </r>
       <r>    5.5559    0.0000 </r>
       <r>    6.4755    0.0000 </r>
       <r>    6.5165    0.0000 </r>
       <r>    6.8096    0.0000 </r>
       <r>    6.9213    0.0000 </r>
       <r>    7.1690    0.0000 </r>
       <r>    7.2549    0.0000 </r>
       <r>    8.1499    0.0000 </r>
       <r>    8.3199    0.0000 </r>
      </set>
     </set>
    </set>
   </array>
  </eigenvalues>
  <separator name="orbital magnetization" >
   <v name="MAGDIPOLOUT">      0.00000000      0.00000000      0.00000000</v>
  </separator>
  <dos>
   <i name="efermi">      2.17254112 </i>
   <total>
    <array>
     <dimension dim="1">gridpoints</dimension>
     <dimension dim="2">spin</dimension>
     <field>energy</field>
     <field>total</field>
     <field>integrated</field>
     <set>
      <set comment="spin 1">
       <r>   -43.5045     0.0000     0.0000 </r>
       <r>   -43.3222     0.0000     0.0000 </r>
       <r>   -43.1398     0.0000     0.0000 </r>
       <r>   -42.9575     0.0000     0.0000 </r>
       <r>   -42.7752     0.0000     0.0000 </r>
       <r>   -42.5928     0.0000     0.0000 </r>
       <r>   -42.4105     0.0000     0.0000 </r>
       <r>   -42.2281     0.0000     0.0000 </r>
       <r>   -42.0458     0.0000     0.0000 </r>
       <r>   -41.8634     0.0000     0.0000 </r>
       <r>   -41.6811     0.0000     0.0000 </r>
       <r>   -41.4987     0.0000     0.0000 </r>
       <r>   -41.3164     0.0000     0.0000 </r>
       <r>   -41.1341     0.0000     0.0000 </r>
       <r>   -40.9517     0.0000     4.0000 </r>
       <r>   -40.7694     0.0000     4.0000 </r>
       <r>   -40.5870     0.0000    12.0000 </r>
       <r>   -40.4047     0.0000    12.0000 </r>
       <r>   -40.2223     0.0000    12.0000 </r>
       <r>   -40.0400     0.0000    12.0000 </r>
       <r>   -39.8577     0.0000    12.0000 </r>
       <r>   -39.6753     0.0000    12.0000 </r>
       <r>   -39.4930     0.0000    12.0000 </r>
       <r>   -39.3106     0.0000    12.0000 </r>
       <r>   -39.1283     0.0000    12.0000 </r>
       <r>   -38.9459     0.0000    12.0000 </r>
       <r>   -38.7636     0.0000    12.0000 </r>
       <r>   -38.5813     0.0000    12.0000 </r>
       <r>   -38.3989     0.0000    12.0000 </r>
       <r>   -38.2166     0.0000    12.0000 </r>
       <r>   -38.0342     0.0000    12.0000 </r>
       <r>   -37.8519     0.0000    12.0000 </r>
       <r>   -37.6695     0.0000    12.0000 </r>
       <r>   -37.4872     0.0000    12.0000 </r>
       <r>   -37.3048     0.0000    12.0000 </r>
       <r>   -37.1225     0.0000    12.0000 </r>
       <r>   -36.9402     0.0000    12.0000 </r>
       <r>   -36.7578     0.0000    12.0000 </r>
       <r>   -36.5755     0.0000    12.0000 </r>
       <r>   -36.3931     0.0000    12.0000 </r>
       <r>   -36.2108     0.0000    12.0000 </r>
       <r>   -36.0284     0.0000    12.0000 </r>
       <r>   -35.8461     0.0000    12.0000 </r>
       <r>   -35.6638     0.0000    12.0000 </r>
       <r>   -35.4814     0.0000    12.0000 </r>
       <r>   -35.2991     0.0000    12.0000 </r>
       <r>   -35.1167     0.0000    12.0000 </r>
       <r>   -34.9344     0.0000    12.0000 </r>
       <r>   -34.7520     0.0000    12.0000 </r>
       <r>   -34.5697     0.0000    12.0000 </r>
       <r>   -34.3873     0.0000    12.0000 </r>
       <r>   -34.2050     0.0000    12.0000 </r>
       <r>   -34.0227     0.0000    12.0000 </r>
       <r>   -33.8403     0.0000    12.0000 </r>
       <r>   -33.6580     0.0000    12.0000 </r>
       <r>   -33.4756     0.0000    12.0000 </r>
       <r>   -33.2933     0.0000    12.0000 </r>
       <r>   -33.1109     0.0000    12.0000 </r>
       <r>   -32.9286     0.0000    12.0000 </r>
       <r>   -32.7463     0.0000    12.0000 </r>
       <r>   -32.5639     0.0000    12.0000 </r>
       <r>   -32.3816     0.0000    12.0000 </r>
       <r>   -32.1992     0.0000    12.0000 </r>
       <r>   -32.0169     0.0000    12.0000 </r>
       <r>   -31.8345     0.0000    12.0000 </r>
       <r>   -31.6522     0.0000    12.0000 </r>
       <r>   -31.4699     0.0000    12.0000 </r>
       <r>   -31.2875     0.0000    12.0000 </r>
       <r>   -31.1052     0.0000    12.0000 </r>
       <r>   -30.9228     0.0000    12.0000 </r>
       <r>   -30.7405     0.0000    12.0000 </r>
       <r>   -30.5581     0.0000    12.0000 </r>
       <r>   -30.3758     0.0000    12.0000 </r>
       <r>   -30.1934     0.0000    12.0000 </r>
       <r>   -30.0111     0.0000    12.0000 </r>
       <r>   -29.8288     0.0000    12.0000 </r>
       <r>   -29.6464     0.0000    12.0000 </r>
       <r>   -29.4641     0.0000    12.0000 </r>
       <r>   -29.2817     0.0000    12.0000 </r>
       <r>   -29.0994     0.0000    12.0000 </r>
       <r>   -28.9170     0.0000    12.0000 </r>
       <r>   -28.7347     0.0000    12.0000 </r>
       <r>   -28.5524     0.0000    12.0000 </r>
       <r>   -28.3700     0.0000    12.0000 </r>
       <r>   -28.1877     0.0000    12.0000 </r>
       <r>   -28.0053     0.0000    12.0000 </r>
       <r>   -27.8230     0.0000    12.0000 </r>
       <r>   -27.6406     0.0000    12.0000 </r>
       <r>   -27.4583     0.0000    12.0000 </r>
       <r>   -27.2759     0.0000    12.0000 </r>
       <r>   -27.0936     0.0000    12.0000 </r>
       <r>   -26.9113     0.0000    12.0000 </r>
       <r>   -26.7289     0.0000    12.0000 </r>
       <r>   -26.5466     0.0000    12.0000 </r>
       <r>   -26.3642     0.0000    12.0000 </r>
       <r>   -26.1819     0.0000    12.0000 </r>
       <r>   -25.9995     0.0000    12.0000 </r>
       <r>   -25.8172     0.0000    12.0000 </r>
       <r>   -25.6349     0.0000    12.0000 </r>
       <r>   -25.4525     0.0000    12.0000 </r>
       <r>   -25.2702     0.0000    12.0000 </r>
       <r>   -25.0878     0.0000    12.0000 </r>
       <r>   -24.9055     0.0000    12.0000 </r>
       <r>   -24.7231     0.0000    12.0000 </r>
       <r>   -24.5408     0.0000    12.0000 </r>
       <r>   -24.3585     0.0000    12.0000 </r>
       <r>   -24.1761     0.0000    12.0000 </r>
       <r>   -23.9938     0.0000    12.0000 </r>
       <r>   -23.8114     0.0000    12.0000 </r>
       <r>   -23.6291     0.0000    12.0000 </r>
       <r>   -23.4467     0.0000    12.0000 </r>
       <r>   -23.2644     0.0000    12.0000 </r>
       <r>   -23.0820     0.0000    12.0000 </r>
       <r>   -22.8997     0.0000    12.0000 </r>
       <r>   -22.7174     0.0000    12.0000 </r>
       <r>   -22.5350     0.0000    12.0000 </r>
       <r>   -22.3527     0.0000    12.0000 </r>
       <r>   -22.1703     0.0000    12.0000 </r>
       <r>   -21.9880     0.0000    12.0000 </r>
       <r>   -21.8056     0.0000    12.0000 </r>
       <r>   -21.6233     0.0000    12.0000 </r>
       <r>   -21.4410     0.0000    12.0000 </r>
       <r>   -21.2586     0.0000    12.0000 </r>
       <r>   -21.0763     0.0000    12.0000 </r>
       <r>   -20.8939     0.0000    12.0000 </r>
       <r>   -20.7116     0.0000    12.0000 </r>
       <r>   -20.5292     0.0000    12.0000 </r>
       <r>   -20.3469     0.0000    12.0000 </r>
       <r>   -20.1645     0.0000    12.0000 </r>
       <r>   -19.9822     0.0000    12.0000 </r>
       <r>   -19.7999     0.0000    12.0000 </r>
       <r>   -19.6175     0.0000    12.0000 </r>
       <r>   -19.4352     0.0000    12.0000 </r>
       <r>   -19.2528     0.0000    12.0000 </r>
       <r>   -19.0705     0.0000    12.0000 </r>
       <r>   -18.8881     0.0000    12.0000 </r>
       <r>   -18.7058     0.0000    12.0000 </r>
       <r>   -18.5235     0.0000    12.0000 </r>
       <r>   -18.3411     0.0000    12.0000 </r>
       <r>   -18.1588     0.0000    12.0000 </r>
       <r>   -17.9764     0.0000    12.0000 </r>
       <r>   -17.7941     0.0000    12.0000 </r>
       <r>   -17.6117     0.0000    12.0000 </r>
       <r>   -17.4294     0.0000    12.0000 </r>
       <r>   -17.2471     0.0000    12.0000 </r>
       <r>   -17.0647     0.0000    12.0000 </r>
       <r>   -16.8824     0.0000    12.0000 </r>
       <r>   -16.7000     0.0000    12.0000 </r>
       <r>   -16.5177     0.0000    12.0000 </r>
       <r>   -16.3353     0.0000    12.0000 </r>
       <r>   -16.1530     0.0000    12.0000 </r>
       <r>   -15.9706     0.0000    12.0000 </r>
       <r>   -15.7883     0.0000    12.0000 </r>
       <r>   -15.6060     0.0000    12.0000 </r>
       <r>   -15.4236     0.0000    12.0000 </r>
       <r>   -15.2413     0.0000    12.0000 </r>
       <r>   -15.0589     0.0000    12.0000 </r>
       <r>   -14.8766     0.0000    12.0000 </r>
       <r>   -14.6942     0.0000    12.0000 </r>
       <r>   -14.5119     0.0000    12.0000 </r>
       <r>   -14.3296     0.0000    12.0000 </r>
       <r>   -14.1472     0.0000    12.0000 </r>
       <r>   -13.9649     0.0000    12.0000 </r>
       <r>   -13.7825     0.0000    12.0000 </r>
       <r>   -13.6002     0.0000    12.0000 </r>
       <r>   -13.4178     0.0000    12.0000 </r>
       <r>   -13.2355     0.0000    12.0000 </r>
       <r>   -13.0531     0.0000    12.0000 </r>
       <r>   -12.8708     0.0000    12.0000 </r>
       <r>   -12.6885     0.0000    12.0000 </r>
       <r>   -12.5061    39.4091    14.5358 </r>
       <r>   -12.3238     0.0000    16.0000 </r>
       <r>   -12.1414     0.0000    16.0000 </r>
       <r>   -11.9591     0.0000    16.0000 </r>
       <r>   -11.7767     0.0000    16.0000 </r>
       <r>   -11.5944     0.0000    16.0000 </r>
       <r>   -11.4121     0.0000    16.0000 </r>
       <r>   -11.2297     0.0000    16.0000 </r>
       <r>   -11.0474     0.0000    16.0000 </r>
       <r>   -10.8650     0.0000    16.0000 </r>
       <r>   -10.6827     0.0000    16.0000 </r>
       <r>   -10.5003     0.0000    16.0000 </r>
       <r>   -10.3180     0.0000    16.0000 </r>
       <r>   -10.1357     0.0000    16.0000 </r>
       <r>    -9.9533     0.0000    16.0000 </r>
       <r>    -9.7710     0.0000    16.0000 </r>
       <r>    -9.5886    29.1695    17.9973 </r>
       <r>    -9.4063    66.4213    24.8387 </r>
       <r>    -9.2239     0.0000    28.0000 </r>
       <r>    -9.0416     0.0000    28.0000 </r>
       <r>    -8.8592     0.0000    28.0000 </r>
       <r>    -8.6769     0.0000    28.0000 </r>
       <r>    -8.4946     0.0000    28.0000 </r>
       <r>    -8.3122     0.0000    28.0000 </r>
       <r>    -8.1299     0.0000    28.0000 </r>
       <r>    -7.9475     0.0000    28.0000 </r>
       <r>    -7.7652     0.0000    28.0000 </r>
       <r>    -7.5828     0.0000    28.0000 </r>
       <r>    -7.4005     0.0000    28.0000 </r>
       <r>    -7.2182     0.0000    28.0000 </r>
       <r>    -7.0358     0.0000    28.0000 </r>
       <r>    -6.8535     0.0000    28.0000 </r>
       <r>    -6.6711     0.0000    28.0000 </r>
       <r>    -6.4888     0.0000    28.0000 </r>
       <r>    -6.3064     0.0000    28.0000 </r>
       <r>    -6.1241     0.0000    28.0000 </r>
       <r>    -5.9417     0.0000    28.0000 </r>
       <r>    -5.7594     0.0000    28.0000 </r>
       <r>    -5.5771     0.0000    28.0000 </r>
       <r>    -5.3947     3.7657    28.3970 </r>
       <r>    -5.2124     4.1407    29.8138 </r>
       <r>    -5.0300     0.0000    32.0000 </r>
       <r>    -4.8477     0.0000    32.0000 </r>
       <r>    -4.6653     0.0000    32.0000 </r>
       <r>    -4.4830     0.0000    32.0000 </r>
       <r>    -4.3007     0.0000    32.0000 </r>
       <r>    -4.1183     0.0000    32.0000 </r>
       <r>    -3.9360     0.0000    32.0000 </r>
       <r>    -3.7536     0.0000    32.0000 </r>
       <r>    -3.5713     0.0000    32.0000 </r>
       <r>    -3.3889     0.0000    32.0000 </r>
       <r>    -3.2066     0.0000    32.0000 </r>
       <r>    -3.0243     0.0000    32.0000 </r>
       <r>    -2.8419     0.0000    32.0000 </r>
       <r>    -2.6596     0.0000    32.0000 </r>
       <r>    -2.4772    14.9019    33.8520 </r>
       <r>    -2.2949    12.8880    37.1041 </r>
       <r>    -2.1125    17.0156    40.9555 </r>
       <r>    -1.9302     0.0000    44.0000 </r>
       <r>    -1.7478     0.0000    44.0000 </r>
       <r>    -1.5655     0.0000    44.0000 </r>
       <r>    -1.3832     0.0000    44.0000 </r>
       <r>    -1.2008     0.0000    44.0000 </r>
       <r>    -1.0185     0.0000    44.0000 </r>
       <r>    -0.8361     0.0000    44.0000 </r>
       <r>    -0.6538     0.0000    44.0000 </r>
       <r>    -0.4714     0.0000    44.0000 </r>
       <r>    -0.2891     3.9212    44.1133 </r>
       <r>    -0.1068    14.1679    47.0323 </r>
       <r>     0.0756    14.0527    49.9167 </r>
       <r>     0.2579     3.6130    51.9627 </r>
       <r>     0.4403     9.1691    53.1798 </r>
       <r>     0.6226     5.0678    55.0392 </r>
       <r>     0.8050     6.0478    56.1485 </r>
       <r>     0.9873    13.1957    58.9578 </r>
       <r>     1.1697     9.9977    61.6311 </r>
       <r>     1.3520     8.4850    63.6417 </r>
       <r>     1.5343    15.2892    65.4626 </r>
       <r>     1.7167    11.1877    67.9296 </r>
       <r>     1.8990    19.3362    71.8639 </r>
       <r>     2.0814    22.7215    75.0057 </r>
       <r>     2.2637     0.0000    76.0000 </r>
       <r>     2.4461     0.0000    76.0000 </r>
       <r>     2.6284     0.0000    76.0000 </r>
       <r>     2.8107     0.0000    76.0000 </r>
       <r>     2.9931     0.0000    76.0000 </r>
       <r>     3.1754     0.0000    76.0000 </r>
       <r>     3.3578     0.0000    76.0000 </r>
       <r>     3.5401     0.0000    76.0000 </r>
       <r>     3.7225     0.0000    76.0000 </r>
       <r>     3.9048     0.0000    76.0000 </r>
       <r>     4.0871     0.0000    76.0000 </r>
       <r>     4.2695     0.0000    76.0000 </r>
       <r>     4.4518     0.0000    76.0000 </r>
       <r>     4.6342     0.0000    76.0000 </r>
       <r>     4.8165     0.0000    76.0000 </r>
       <r>     4.9989     0.0000    76.0000 </r>
       <r>     5.1812     2.4379    76.4719 </r>
       <r>     5.3636     3.8909    77.0454 </r>
       <r>     5.5459     4.6963    78.1060 </r>
       <r>     5.7282     3.6476    78.9960 </r>
       <r>     5.9106     2.3189    79.7846 </r>
       <r>     6.0929     1.2239    80.0796 </r>
       <r>     6.2753     3.1025    80.5098 </r>
       <r>     6.4576    13.0192    81.8493 </r>
       <r>     6.6400     9.5385    84.3692 </r>
       <r>     6.8223    11.5437    86.1166 </r>
       <r>     7.0046    10.6047    88.5424 </r>
       <r>     7.1870     8.8113    90.8812 </r>
       <r>     7.3693     0.0000    92.0000 </r>
       <r>     7.5517     0.0000    92.0000 </r>
       <r>     7.7340     0.0000    92.0000 </r>
       <r>     7.9164     0.0000    92.0000 </r>
       <r>     8.0987     1.6185    92.1038 </r>
       <r>     8.2811     4.0896    93.4536 </r>
       <r>     8.4634     8.8179    94.4283 </r>
       <r>     8.6457     2.0567    95.8713 </r>
       <r>     8.8281     0.0000    96.0000 </r>
       <r>     9.0104     0.0000    96.0000 </r>
       <r>     9.1928     0.0000    96.0000 </r>
       <r>     9.3751     0.0000    96.0000 </r>
       <r>     9.5575     0.0000    96.0000 </r>
       <r>     9.7398     0.0000    96.0000 </r>
       <r>     9.9221     0.0000    96.0000 </r>
       <r>    10.1045     0.0000    96.0000 </r>
       <r>    10.2868     0.0000    96.0000 </r>
       <r>    10.4692     0.0000    96.0000 </r>
       <r>    10.6515     0.0000    96.0000 </r>
       <r>    10.8339     0.0000    96.0000 </r>
       <r>    11.0162     0.0000    96.0000 </r>
       <r>    11.1985     0.0000    96.0000 </r>
      </set>
     </set>
    </array>
   </total>
  </dos>
 </calculation>
 <structure name="finalpos" >
  <crystal>
   <varray name="basis" >
    <v>       7.48122033       0.00000000       0.00000000 </v>
    <v>       0.00000000       6.40838600       0.00000000 </v>
    <v>       0.00000000       0.00000000       6.01183686 </v>
   </varray>
   <i name="volume">    288.22277500 </i>
   <varray name="rec_basis" >
    <v>       0.13366803       0.00000000       0.00000000 </v>
    <v>       0.00000000       0.15604553       0.00000000 </v>
    <v>       0.00000000       0.00000000       0.16633851 </v>
   </varray>
  </crystal>
  <varray name="positions" >
   <v>       0.00000000       0.31513211       0.28194045 </v>
   <v>       0.50000000       0.68486789       0.78194045 </v>
   <v>       0.22295342       0.16487010       0.17216305 </v>
   <v>       0.27704658       0.83512990       0.67216305 </v>
   <v>       0.72295342       0.83512990       0.67216305 </v>
   <v>       0.77704658       0.16487010       0.17216305 </v>
   <v>       0.00000000       0.61233904       0.16410308 </v>
   <v>       0.50000000       0.38766096       0.66410308 </v>
   <v>       0.00000000       0.31033139       0.62070437 </v>
   <v>       0.50000000       0.68966861       0.12070437 </v>
   <v>       0.00000000       0.65122872       0.76731767 </v>
   <v>       0.50000000       0.34877128       0.26731767 </v>
   <v>       0.25900330       0.18712049       0.78398335 </v>
   <v>       0.24099670       0.81287951       0.28398335 </v>
   <v>       0.75900330       0.81287951       0.28398335 </v>
   <v>       0.74099670       0.18712049       0.78398335 </v>
  </varray>
 </structure>
</modeling>
