<?xml version="1.0" encoding="ISO-8859-1"?>
<modeling>
 <generator>
  <i name="program" type="string">vasp </i>
  <i name="version" type="string">5.4.4.18Apr17-6-g9f103f2a35  </i>
  <i name="subversion" type="string">(build Feb 28 2020 14:15:47) complex            parallel </i>
  <i name="platform" type="string">LinuxIFC </i>
  <i name="date" type="string">2022 08 06 </i>
  <i name="time" type="string">16:03:04 </i>
 </generator>
 <incar>
  <i type="int" name="ISTART">     0</i>
  <i type="string" name="PREC">accurate</i>
  <i type="string" name="ALGO"> FAST</i>
  <i type="int" name="ISPIN">     1</i>
  <i type="int" name="ICHARG">     2</i>
  <i type="int" name="INIWAV">     1</i>
  <i type="int" name="NELM">   100</i>
  <i type="int" name="IBRION">     2</i>
  <i name="EDIFF">      0.00002000</i>
  <i name="EDIFFG">      0.00020000</i>
  <i type="int" name="NSW">   100</i>
  <i type="int" name="ISIF">     3</i>
  <i name="ENCUT">    420.00000000</i>
  <i type="string" name="LREAL"> AUTO</i>
  <i type="int" name="ISMEAR">    -5</i>
  <i type="logical" name="LWAVE"> F  </i>
  <i type="logical" name="LCHARG"> F  </i>
  <v type="int" name="KPOINT_BSE">    -1     0     0     0</v>
  <i type="int" name="NELM">   100</i>
 </incar>
 <structure name="primitive_cell" >
  <crystal>
   <varray name="basis" >
    <v>       6.93361274       0.00000000       0.00000000 </v>
    <v>       0.00000000       6.93361274       0.00000000 </v>
    <v>       0.00000000       0.00000000       6.93361274 </v>
   </varray>
   <i name="volume">    333.33333333 </i>
   <varray name="rec_basis" >
    <v>       0.14422496       0.00000000       0.00000000 </v>
    <v>       0.00000000       0.14422496       0.00000000 </v>
    <v>       0.00000000       0.00000000       0.14422496 </v>
   </varray>
  </crystal>
  <varray name="positions" >
   <v>       0.00000000      -0.05500000       0.01000000 </v>
   <v>       0.00000000      -0.33789342       0.06634486 </v>
   <v>       0.23551848       0.01273658      -0.14213886 </v>
   <v>      -0.23551848       0.01273658      -0.14213886 </v>
   <v>       0.00000000       0.09242025       0.25793285 </v>
   <v>       0.22900000       0.17300000       0.10200000 </v>
   <v>      -0.22900000       0.17300000       0.10200000 </v>
   <v>       0.26448152      -0.01273658       0.35786114 </v>
   <v>      -0.26448152      -0.01273658       0.35786114 </v>
   <v>       0.00000000       0.40500000      -0.14200000 </v>
   <v>       0.27100000      -0.17300000      -0.39800000 </v>
   <v>      -0.27100000      -0.17300000      -0.39800000 </v>
   <v>      -0.50000000      -0.09242025      -0.24206715 </v>
   <v>      -0.50000000      -0.40500000       0.35800000 </v>
   <v>      -0.50000000       0.05500000      -0.49000000 </v>
   <v>      -0.50000000       0.33789342      -0.43365514 </v>
  </varray>
 </structure>
 <varray name="primitive_index" >
  <v type="int" >        1 </v>
  <v type="int" >        9 </v>
  <v type="int" >        3 </v>
  <v type="int" >        6 </v>
  <v type="int" >        7 </v>
  <v type="int" >       13 </v>
  <v type="int" >       16 </v>
  <v type="int" >        4 </v>
  <v type="int" >        5 </v>
  <v type="int" >       11 </v>
  <v type="int" >       14 </v>
  <v type="int" >       15 </v>
  <v type="int" >        8 </v>
  <v type="int" >       12 </v>
  <v type="int" >        2 </v>
  <v type="int" >       10 </v>
 </varray>
 <kpoints>
  <generation param="Monkhorst-Pack">
   <v type="int" name="divisions">       4        4        4 </v>
   <v name="usershift">      0.00000000       0.00000000       0.00000000 </v>
   <v name="genvec1">      0.25000000       0.00000000       0.00000000 </v>
   <v name="genvec2">      0.00000000       0.25000000       0.00000000 </v>
   <v name="genvec3">      0.00000000       0.00000000       0.25000000 </v>
   <v name="shift">      0.50000000       0.50000000       0.50000000 </v>
  </generation>
  <varray name="kpointlist" >
   <v>       0.12500000       0.12500000       0.12500000 </v>
   <v>       0.37500000       0.12500000       0.12500000 </v>
   <v>       0.12500000       0.37500000       0.12500000 </v>
   <v>       0.37500000       0.37500000       0.12500000 </v>
   <v>       0.12500000       0.12500000       0.37500000 </v>
   <v>       0.37500000       0.12500000       0.37500000 </v>
   <v>       0.12500000       0.37500000       0.37500000 </v>
   <v>       0.37500000       0.37500000       0.37500000 </v>
  </varray>
  <varray name="weights" >
   <v>       0.12500000 </v>
   <v>       0.12500000 </v>
   <v>       0.12500000 </v>
   <v>       0.12500000 </v>
   <v>       0.12500000 </v>
   <v>       0.12500000 </v>
   <v>       0.12500000 </v>
   <v>       0.12500000 </v>
  </varray>
  <varray name="tetrahedronlist"  type="int" >
   <v type="int" >        2        1        2        4        5 </v>
   <v type="int" >        2        1        3        4        5 </v>
   <v type="int" >        2        3        4        5        7 </v>
   <v type="int" >        2        2        4        5        6 </v>
   <v type="int" >        2        4        5        6        8 </v>
   <v type="int" >        2        4        5        7        8 </v>
   <v type="int" >        2        2        2        4        6 </v>
   <v type="int" >        2        2        4        4        6 </v>
   <v type="int" >        2        4        4        6        8 </v>
   <v type="int" >        2        2        4        6        6 </v>
   <v type="int" >        2        4        6        6        8 </v>
   <v type="int" >        2        4        6        8        8 </v>
   <v type="int" >        2        1        2        3        6 </v>
   <v type="int" >        2        2        3        4        6 </v>
   <v type="int" >        2        3        4        6        8 </v>
   <v type="int" >        2        1        3        5        6 </v>
   <v type="int" >        2        3        5        6        7 </v>
   <v type="int" >        2        3        6        7        8 </v>
   <v type="int" >        2        1        1        3        5 </v>
   <v type="int" >        2        1        3        3        5 </v>
   <v type="int" >        2        3        3        5        7 </v>
   <v type="int" >        2        1        3        5        5 </v>
   <v type="int" >        2        3        5        5        7 </v>
   <v type="int" >        2        3        5        7        7 </v>
   <v type="int" >        2        3        4        4        7 </v>
   <v type="int" >        2        3        3        4        7 </v>
   <v type="int" >        2        3        4        7        7 </v>
   <v type="int" >        2        4        4        7        8 </v>
   <v type="int" >        2        4        7        8        8 </v>
   <v type="int" >        2        4        7        7        8 </v>
   <v type="int" >        4        4        4        4        8 </v>
   <v type="int" >        4        4        4        8        8 </v>
   <v type="int" >        4        4        8        8        8 </v>
   <v type="int" >        2        3        3        4        8 </v>
   <v type="int" >        2        3        4        4        8 </v>
   <v type="int" >        2        3        4        8        8 </v>
   <v type="int" >        2        3        3        7        8 </v>
   <v type="int" >        2        3        7        7        8 </v>
   <v type="int" >        2        3        7        8        8 </v>
   <v type="int" >        4        3        3        3        7 </v>
   <v type="int" >        4        3        3        7        7 </v>
   <v type="int" >        4        3        7        7        7 </v>
   <v type="int" >        2        2        3        4        7 </v>
   <v type="int" >        2        1        2        3        7 </v>
   <v type="int" >        2        1        2        5        7 </v>
   <v type="int" >        2        2        4        7        8 </v>
   <v type="int" >        2        2        6        7        8 </v>
   <v type="int" >        2        2        5        6        7 </v>
   <v type="int" >        2        2        4        4        8 </v>
   <v type="int" >        2        2        2        4        8 </v>
   <v type="int" >        2        2        2        6        8 </v>
   <v type="int" >        2        2        4        8        8 </v>
   <v type="int" >        2        2        6        8        8 </v>
   <v type="int" >        2        2        6        6        8 </v>
   <v type="int" >        2        1        3        4        8 </v>
   <v type="int" >        2        1        2        4        8 </v>
   <v type="int" >        2        1        2        6        8 </v>
   <v type="int" >        2        1        3        7        8 </v>
   <v type="int" >        2        1        5        7        8 </v>
   <v type="int" >        2        1        5        6        8 </v>
   <v type="int" >        2        1        3        3        7 </v>
   <v type="int" >        2        1        1        3        7 </v>
   <v type="int" >        2        1        1        5        7 </v>
   <v type="int" >        2        1        3        7        7 </v>
   <v type="int" >        2        1        5        7        7 </v>
   <v type="int" >        2        1        5        5        7 </v>
   <v type="int" >        2        1        2        2        5 </v>
   <v type="int" >        2        1        1        2        5 </v>
   <v type="int" >        2        1        2        5        5 </v>
   <v type="int" >        2        2        2        5        6 </v>
   <v type="int" >        2        2        5        6        6 </v>
   <v type="int" >        2        2        5        5        6 </v>
   <v type="int" >        4        2        2        2        6 </v>
   <v type="int" >        4        2        2        6        6 </v>
   <v type="int" >        4        2        6        6        6 </v>
   <v type="int" >        2        1        1        2        6 </v>
   <v type="int" >        2        1        2        2        6 </v>
   <v type="int" >        2        1        2        6        6 </v>
   <v type="int" >        2        1        1        5        6 </v>
   <v type="int" >        2        1        5        5        6 </v>
   <v type="int" >        2        1        5        6        6 </v>
   <v type="int" >        4        1        1        1        5 </v>
   <v type="int" >        4        1        1        5        5 </v>
   <v type="int" >        4        1        5        5        5 </v>
   <v type="int" >        2        5        5        6        8 </v>
   <v type="int" >        2        5        5        7        8 </v>
   <v type="int" >        2        5        7        7        8 </v>
   <v type="int" >        2        5        6        6        8 </v>
   <v type="int" >        2        5        6        8        8 </v>
   <v type="int" >        2        5        7        8        8 </v>
   <v type="int" >        4        6        6        6        8 </v>
   <v type="int" >        4        6        6        8        8 </v>
   <v type="int" >        4        6        8        8        8 </v>
   <v type="int" >        2        5        6        6        7 </v>
   <v type="int" >        2        6        6        7        8 </v>
   <v type="int" >        2        6        7        8        8 </v>
   <v type="int" >        2        5        5        6        7 </v>
   <v type="int" >        2        5        6        7        7 </v>
   <v type="int" >        2        6        7        7        8 </v>
   <v type="int" >        4        5        5        5        7 </v>
   <v type="int" >        4        5        5        7        7 </v>
   <v type="int" >        4        5        7        7        7 </v>
   <v type="int" >        4        7        7        8        8 </v>
   <v type="int" >        4        7        7        7        8 </v>
   <v type="int" >        4        7        8        8        8 </v>
   <v type="int" >        6        8        8        8        8 </v>
   <v type="int" >        6        7        7        7        7 </v>
   <v type="int" >        4        5        5        6        6 </v>
   <v type="int" >        4        5        5        5        6 </v>
   <v type="int" >        4        5        6        6        6 </v>
   <v type="int" >        6        6        6        6        6 </v>
   <v type="int" >        6        5        5        5        5 </v>
   <v type="int" >        2        1        1        2        4 </v>
   <v type="int" >        2        1        1        3        4 </v>
   <v type="int" >        2        1        3        3        4 </v>
   <v type="int" >        2        1        2        2        4 </v>
   <v type="int" >        2        1        2        4        4 </v>
   <v type="int" >        2        1        3        4        4 </v>
   <v type="int" >        4        2        2        2        4 </v>
   <v type="int" >        4        2        2        4        4 </v>
   <v type="int" >        4        2        4        4        4 </v>
   <v type="int" >        2        1        2        2        3 </v>
   <v type="int" >        2        2        2        3        4 </v>
   <v type="int" >        2        2        3        4        4 </v>
   <v type="int" >        2        1        1        2        3 </v>
   <v type="int" >        2        1        2        3        3 </v>
   <v type="int" >        2        2        3        3        4 </v>
   <v type="int" >        4        1        1        1        3 </v>
   <v type="int" >        4        1        1        3        3 </v>
   <v type="int" >        4        1        3        3        3 </v>
   <v type="int" >        4        3        3        4        4 </v>
   <v type="int" >        4        3        3        3        4 </v>
   <v type="int" >        4        3        4        4        4 </v>
   <v type="int" >        6        4        4        4        4 </v>
   <v type="int" >        6        3        3        3        3 </v>
   <v type="int" >        4        1        1        2        2 </v>
   <v type="int" >        4        1        1        1        2 </v>
   <v type="int" >        4        1        2        2        2 </v>
   <v type="int" >        6        2        2        2        2 </v>
   <v type="int" >        6        1        1        1        1 </v>
  </varray>
  <i name="volumeweight">      0.00260417 </i>
 </kpoints>
 <parameters>
  <separator name="general" >
   <i type="string" name="SYSTEM">unknown system</i>
   <i type="logical" name="LCOMPAT"> F  </i>
  </separator>
  <separator name="electronic" >
   <i type="string" name="PREC">accura</i>
   <i name="ENMAX">    420.00000000</i>
   <i name="ENAUG">    628.94500000</i>
   <i name="EDIFF">      0.00002000</i>
   <i type="int" name="IALGO">    68</i>
   <i type="int" name="IWAVPR">    11</i>
   <i type="int" name="NBANDS">    48</i>
   <i name="NELECT">     76.00000000</i>
   <i type="int" name="TURBO">     0</i>
   <i type="int" name="IRESTART">     0</i>
   <i type="int" name="NREBOOT">     0</i>
   <i type="int" name="NMIN">     0</i>
   <i name="EREF">      0.00000000</i>
   <separator name="electronic smearing" >
    <i type="int" name="ISMEAR">    -5</i>
    <i name="SIGMA">      0.20000000</i>
    <i name="KSPACING">      0.50000000</i>
    <i type="logical" name="KGAMMA"> T  </i>
   </separator>
   <separator name="electronic projectors" >
    <i type="logical" name="LREAL"> T  </i>
    <v name="ROPT">     -0.00025000     -0.00025000     -0.00025000</v>
    <i type="int" name="LMAXPAW">  -100</i>
    <i type="int" name="LMAXMIX">     2</i>
    <i type="logical" name="NLSPLINE"> F  </i>
   </separator>
   <separator name="electronic startup" >
    <i type="int" name="ISTART">     0</i>
    <i type="int" name="ICHARG">     2</i>
    <i type="int" name="INIWAV">     1</i>
   </separator>
   <separator name="electronic spin" >
    <i type="int" name="ISPIN">     1</i>
    <i type="logical" name="LNONCOLLINEAR"> F  </i>
    <v name="MAGMOM">      1.00000000      1.00000000      1.00000000      1.00000000      1.00000000      1.00000000      1.00000000      1.00000000      1.00000000      1.00000000      1.00000000      1.00000000      1.00000000      1.00000000      1.00000000      1.00000000</v>
    <i name="NUPDOWN">     -1.00000000</i>
    <i type="logical" name="LSORBIT"> F  </i>
    <v name="SAXIS">      0.00000000      0.00000000      1.00000000</v>
    <i type="logical" name="LSPIRAL"> F  </i>
    <v name="QSPIRAL">      0.00000000      0.00000000      0.00000000</v>
    <i type="logical" name="LZEROZ"> F  </i>
   </separator>
   <separator name="electronic exchange-correlation" >
    <i type="logical" name="LASPH"> F  </i>
    <i type="logical" name="LMETAGGA"> F  </i>
   </separator>
   <separator name="electronic convergence" >
    <i type="int" name="NELM">   100</i>
    <i type="int" name="NELMDL">    -5</i>
    <i type="int" name="NELMIN">     2</i>
    <i name="ENINI">    420.00000000</i>
    <separator name="electronic convergence detail" >
     <i type="logical" name="LDIAG"> T  </i>
     <i type="logical" name="LSUBROT"> F  </i>
     <i name="WEIMIN">      0.00100000</i>
     <i name="EBREAK">      0.00000010</i>
     <i name="DEPER">      0.30000000</i>
     <i type="int" name="NRMM">     4</i>
     <i name="TIME">      0.40000000</i>
    </separator>
   </separator>
   <separator name="electronic mixer" >
    <i name="AMIX">      0.40000000</i>
    <i name="BMIX">      1.00000000</i>
    <i name="AMIN">      0.10000000</i>
    <i name="AMIX_MAG">      1.60000000</i>
    <i name="BMIX_MAG">      1.00000000</i>
    <separator name="electronic mixer details" >
     <i type="int" name="IMIX">     4</i>
     <i type="logical" name="MIXFIRST"> F  </i>
     <i type="int" name="MAXMIX">   -45</i>
     <i name="WC">    100.00000000</i>
     <i type="int" name="INIMIX">     1</i>
     <i type="int" name="MIXPRE">     1</i>
     <i type="int" name="MREMOVE">     5</i>
    </separator>
   </separator>
   <separator name="electronic dipolcorrection" >
    <i type="logical" name="LDIPOL"> F  </i>
    <i type="logical" name="LMONO"> F  </i>
    <i type="int" name="IDIPOL">     0</i>
    <i name="EPSILON">      1.00000000</i>
    <v name="DIPOL">   -100.00000000   -100.00000000   -100.00000000</v>
    <i name="EFIELD">      0.00000000</i>
   </separator>
  </separator>
  <separator name="grids" >
   <i type="int" name="NGX">    48</i>
   <i type="int" name="NGY">    48</i>
   <i type="int" name="NGZ">    48</i>
   <i type="int" name="NGXF">    96</i>
   <i type="int" name="NGYF">    96</i>
   <i type="int" name="NGZF">    96</i>
   <i type="logical" name="ADDGRID"> F  </i>
  </separator>
  <separator name="ionic" >
   <i type="int" name="NSW">   100</i>
   <i type="int" name="IBRION">     2</i>
   <i type="int" name="MDALGO">     0</i>
   <i type="int" name="ISIF">     3</i>
   <i name="PSTRESS">      0.00000000</i>
   <i name="EDIFFG">      0.00020000</i>
   <i type="int" name="NFREE">     1</i>
   <i name="POTIM">      0.50000000</i>
   <i name="SMASS">     -3.00000000</i>
   <i name="SCALEE">      1.00000000</i>
  </separator>
  <separator name="ionic md" >
   <i name="TEBEG">      0.00010000</i>
   <i name="TEEND">      0.00010000</i>
   <i type="int" name="NBLOCK">     1</i>
   <i type="int" name="KBLOCK">   100</i>
   <i type="int" name="NPACO">   256</i>
   <i name="APACO">     16.00000000</i>
  </separator>
  <separator name="symmetry" >
   <i type="int" name="ISYM">     2</i>
   <i name="SYMPREC">      0.00001000</i>
  </separator>
  <separator name="dos" >
   <i type="int" name="LORBIT">     0</i>
   <v name="RWIGS">     -1.00000000     -1.00000000     -1.00000000</v>
   <i type="int" name="NEDOS">   301</i>
   <i name="EMIN">     10.00000000</i>
   <i name="EMAX">    -10.00000000</i>
   <i name="EFERMI">      0.00000000</i>
  </separator>
  <separator name="writing" >
   <i type="int" name="NWRITE">     2</i>
   <i type="logical" name="LWAVE"> F  </i>
   <i type="logical" name="LDOWNSAMPLE"> F  </i>
   <i type="logical" name="LCHARG"> F  </i>
   <i type="logical" name="LPARD"> F  </i>
   <i type="logical" name="LVTOT"> F  </i>
   <i type="logical" name="LVHAR"> F  </i>
   <i type="logical" name="LELF"> F  </i>
   <i type="logical" name="LOPTICS"> F  </i>
   <v name="STM">      0.00000000      0.00000000      0.00000000      0.00000000      0.00000000      0.00000000      0.00000000</v>
  </separator>
  <separator name="performance" >
   <i type="int" name="NPAR">     4</i>
   <i type="int" name="NSIM">     4</i>
   <i type="int" name="NBLK">    -1</i>
   <i type="logical" name="LPLANE"> T  </i>
   <i type="logical" name="LSCALAPACK"> T  </i>
   <i type="logical" name="LSCAAWARE"> F  </i>
   <i type="logical" name="LSCALU"> F  </i>
   <i type="logical" name="LASYNC"> F  </i>
   <i type="logical" name="LORBITALREAL"> F  </i>
  </separator>
  <separator name="miscellaneous" >
   <i type="int" name="IDIOT">     3</i>
   <i type="int" name="ISPECIAL">     0</i>
   <i type="logical" name="LMUSIC"> F  </i>
   <v name="POMASS">     30.97400000     32.06600000      7.01000000</v>
   <v name="DARWINR">      0.00000000      0.00000000      0.00000000</v>
   <v name="DARWINV">      1.00000000      1.00000000      1.00000000</v>
   <i type="logical" name="LCORR"> T  </i>
  </separator>
  <i type="logical" name="GGA_COMPAT"> T  </i>
  <i type="logical" name="LBERRY"> F  </i>
  <i type="int" name="ICORELEVEL">     0</i>
  <i type="logical" name="LDAU"> F  </i>
  <i type="int" name="I_CONSTRAINED_M">     0</i>
  <separator name="electronic exchange-correlation" >
   <i type="string" name="GGA">--</i>
   <i type="int" name="VOSKOWN">     0</i>
   <i type="logical" name="LHFCALC"> F  </i>
   <i type="string" name="PRECFOCK"></i>
   <i type="logical" name="LSYMGRAD"> F  </i>
   <i type="logical" name="LHFONE"> F  </i>
   <i type="logical" name="LRHFCALC"> F  </i>
   <i type="logical" name="LTHOMAS"> F  </i>
   <i type="logical" name="LMODELHF"> F  </i>
   <i name="ENCUT4O">     -1.00000000</i>
   <i type="int" name="EXXOEP">     0</i>
   <i type="int" name="FOURORBIT">     0</i>
   <i name="AEXX">      0.00000000</i>
   <i name="HFALPHA">      0.00000000</i>
   <i name="MCALPHA">      0.00000000</i>
   <i name="ALDAX">      1.00000000</i>
   <i name="AGGAX">      1.00000000</i>
   <i name="ALDAC">      1.00000000</i>
   <i name="AGGAC">      1.00000000</i>
   <i type="int" name="NKREDX">     1</i>
   <i type="int" name="NKREDY">     1</i>
   <i type="int" name="NKREDZ">     1</i>
   <i type="logical" name="SHIFTRED"> F  </i>
   <i type="logical" name="ODDONLY"> F  </i>
   <i type="logical" name="EVENONLY"> F  </i>
   <i type="int" name="LMAXFOCK">     0</i>
   <i type="int" name="NMAXFOCKAE">     0</i>
   <i type="logical" name="LFOCKAEDFT"> F  </i>
   <i name="HFSCREEN">      0.00000000</i>
   <i name="HFSCREENC">      0.00000000</i>
   <i type="int" name="NBANDSGWLOW">     0</i>
  </separator>
  <separator name="vdW DFT" >
   <i type="logical" name="LUSE_VDW"> F  </i>
   <i name="Zab_VDW">     -0.84910000</i>
   <i name="PARAM1">      0.12340000</i>
   <i name="PARAM2">      1.00000000</i>
   <i name="PARAM3">      0.00000000</i>
  </separator>
  <separator name="model GW" >
   <i type="int" name="MODEL_GW">     0</i>
   <i name="MODEL_EPS0">     12.50000000</i>
   <i name="MODEL_ALPHA">      1.00000000</i>
  </separator>
  <separator name="linear response parameters" >
   <i type="logical" name="LEPSILON"> F  </i>
   <i type="logical" name="LRPA"> F  </i>
   <i type="logical" name="LNABLA"> F  </i>
   <i type="logical" name="LVEL"> F  </i>
   <i type="int" name="KINTER">     0</i>
   <i name="CSHIFT">      0.10000000</i>
   <i name="OMEGAMAX">     -1.00000000</i>
   <i name="DEG_THRESHOLD">      0.00200000</i>
   <i name="RTIME">     -0.10000000</i>
   <i name="WPLASMAI">      0.00000000</i>
   <v name="DFIELD">      0.00000000      0.00000000      0.00000000</v>
   <v name="WPLASMA">      0.00000000      0.00000000      0.00000000      0.00000000      0.00000000      0.00000000      0.00000000      0.00000000      0.00000000</v>
  </separator>
  <separator name="orbital magnetization" >
   <i type="logical" name="NUCIND"> F  </i>
   <v name="MAGPOS">      0.00000000      0.00000000      0.00000000</v>
   <i type="logical" name="LNICSALL"> T  </i>
   <i type="logical" name="ORBITALMAG"> F  </i>
   <i type="logical" name="LMAGBLOCH"> F  </i>
   <i type="logical" name="LCHIMAG"> F  </i>
   <i type="logical" name="LGAUGE"> T  </i>
   <i type="int" name="MAGATOM">     0</i>
   <v name="MAGDIPOL">      0.00000000      0.00000000      0.00000000</v>
   <v name="AVECCONST">      0.00000000      0.00000000      0.00000000</v>
  </separator>
  <separator name="response functions" >
   <i type="logical" name="LADDER"> F  </i>
   <i type="logical" name="LRPAFORCE"> F  </i>
   <i type="logical" name="LFXC"> F  </i>
   <i type="logical" name="LHARTREE"> T  </i>
   <i type="int" name="IBSE">     0</i>
   <v type="int" name="KPOINT">    -1     0     0     0</v>
   <i type="logical" name="LTCTE"> F  </i>
   <i type="logical" name="LTETE"> F  </i>
   <i type="logical" name="LTRIPLET"> F  </i>
   <i type="logical" name="LFXCEPS"> F  </i>
   <i type="logical" name="LFXHEG"> F  </i>
   <i type="int" name="NATURALO">     2</i>
   <i type="logical" name="L2ORDER"> F  </i>
   <i type="logical" name="LMP2LT"> F  </i>
   <i type="logical" name="LUSEW"> F  </i>
   <i name="ENCUTGW">     -2.00000000</i>
   <i name="ENCUTGWSOFT">     -2.00000000</i>
   <i name="ENCUTLF">     -1.00000000</i>
   <i type="int" name="LMAXMP2">    -1</i>
   <i name="SCISSOR">      0.00000000</i>
   <i type="int" name="NOMEGA">     0</i>
   <i type="int" name="NOMEGAR">     0</i>
   <i type="int" name="NBANDSGW">    -1</i>
   <i type="int" name="NBANDSO">    -1</i>
   <i type="int" name="NBANDSV">    -1</i>
   <i type="int" name="NELM">   100</i>
   <i type="int" name="NELMHF">     1</i>
   <i type="int" name="DIM">     3</i>
   <i type="int" name="ANTIRES">     0</i>
   <i name="OMEGAMAX">    -30.00000000</i>
   <i name="OMEGAMIN">    -30.00000000</i>
   <i name="OMEGATL">   -200.00000000</i>
   <i type="int" name="OMEGAGRID">   140</i>
   <i name="CSHIFT">     -0.10000000</i>
   <i type="logical" name="SELFENERGY"> F  </i>
   <i type="logical" name="LSPECTRAL"> F  </i>
   <i type="logical" name="LSPECTRALGW"> F  </i>
   <i type="logical" name="LSINGLES"> F  </i>
   <i type="logical" name="LFERMIGW"> F  </i>
   <i type="logical" name="ODDONLYGW"> F  </i>
   <i type="logical" name="EVENONLYGW"> F  </i>
   <i type="int" name="NKREDLFX">     1</i>
   <i type="int" name="NKREDLFY">     1</i>
   <i type="int" name="NKREDLFZ">     1</i>
   <i type="int" name="MAXMEM">  2800</i>
   <i type="int" name="TELESCOPE">     0</i>
   <i type="int" name="TAUPAR">     1</i>
   <i type="int" name="OMEGAPAR">    -1</i>
   <i name="LAMBDA">      1.00000000</i>
  </separator>
  <separator name="External order field" >
   <i name="OFIELD_KAPPA">      0.00000000</i>
   <v name="OFIELD_K">      0.00000000      0.00000000      0.00000000</v>
   <i name="OFIELD_Q6_NEAR">      0.00000000</i>
   <i name="OFIELD_Q6_FAR">      0.00000000</i>
   <i name="OFIELD_A">      0.00000000</i>
  </separator>
 </parameters>
 <atominfo>
  <atoms>      16 </atoms>
  <types>       3 </types>
  <array name="atoms" >
   <dimension dim="1">ion</dimension>
   <field type="string">element</field>
   <field type="int">atomtype</field>
   <set>
    <rc><c>P </c><c>   1</c></rc>
    <rc><c>P </c><c>   1</c></rc>
    <rc><c>S </c><c>   2</c></rc>
    <rc><c>S </c><c>   2</c></rc>
    <rc><c>S </c><c>   2</c></rc>
    <rc><c>S </c><c>   2</c></rc>
    <rc><c>S </c><c>   2</c></rc>
    <rc><c>S </c><c>   2</c></rc>
    <rc><c>S </c><c>   2</c></rc>
    <rc><c>S </c><c>   2</c></rc>
    <rc><c>Li</c><c>   3</c></rc>
    <rc><c>Li</c><c>   3</c></rc>
    <rc><c>Li</c><c>   3</c></rc>
    <rc><c>Li</c><c>   3</c></rc>
    <rc><c>Li</c><c>   3</c></rc>
    <rc><c>Li</c><c>   3</c></rc>
   </set>
  </array>
  <array name="atomtypes" >
   <dimension dim="1">type</dimension>
   <field type="int">atomspertype</field>
   <field type="string">element</field>
   <field>mass</field>
   <field>valence</field>
   <field type="string">pseudopotential</field>
   <set>
    <rc><c>   2</c><c>P </c><c>     30.97400000</c><c>      5.00000000</c><c>  PAW P 26Mar2009                       </c></rc>
    <rc><c>   8</c><c>S </c><c>     32.06600000</c><c>      6.00000000</c><c>  PAW S 27Mar2009                       </c></rc>
    <rc><c>   6</c><c>Li</c><c>      7.01000000</c><c>      3.00000000</c><c>  PAW Li_sv 10Sep2004                   </c></rc>
   </set>
  </array>
 </atominfo>
 <structure name="initialpos" >
  <crystal>
   <varray name="basis" >
    <v>       6.93361274       0.00000000       0.00000000 </v>
    <v>       0.00000000       6.93361274       0.00000000 </v>
    <v>       0.00000000       0.00000000       6.93361274 </v>
   </varray>
   <i name="volume">    333.33333333 </i>
   <varray name="rec_basis" >
    <v>       0.14422496       0.00000000       0.00000000 </v>
    <v>       0.00000000       0.14422496       0.00000000 </v>
    <v>       0.00000000       0.00000000       0.14422496 </v>
   </varray>
  </crystal>
  <varray name="positions" >
   <v>       0.00000000       0.94500000       0.01000000 </v>
   <v>       0.50000000       0.05500000       0.51000000 </v>
   <v>       0.23551848       0.01273658       0.85786114 </v>
   <v>       0.26448152       0.98726342       0.35786114 </v>
   <v>       0.73551848       0.98726342       0.35786114 </v>
   <v>       0.76448152       0.01273658       0.85786114 </v>
   <v>       0.00000000       0.09242025       0.25793285 </v>
   <v>       0.50000000       0.90757975       0.75793285 </v>
   <v>       0.00000000       0.66210658       0.06634486 </v>
   <v>       0.50000000       0.33789342       0.56634486 </v>
   <v>       0.00000000       0.40500000       0.85800000 </v>
   <v>       0.50000000       0.59500000       0.35800000 </v>
   <v>       0.22900000       0.17300000       0.10200000 </v>
   <v>       0.27100000       0.82700000       0.60200000 </v>
   <v>       0.72900000       0.82700000       0.60200000 </v>
   <v>       0.77100000       0.17300000       0.10200000 </v>
  </varray>
 </structure>
 <calculation>
  <scstep>
   <time name="dav">    0.20    0.22</time>
   <time name="total">    0.22    0.25</time>
   <energy>
    <i name="alphaZ">     59.19887464 </i>
    <i name="ewald">  -1796.99701092 </i>
    <i name="hartreedc">  -1383.58646345 </i>
    <i name="XCdc">    185.34157396 </i>
    <i name="pawpsdc">   2494.22442938 </i>
    <i name="pawaedc">  -2541.12215007 </i>
    <i name="eentropy">      0.00000000 </i>
    <i name="bandstr">   -224.90181301 </i>
    <i name="atom">   3769.08782378 </i>
    <i name="e_fr_energy">    561.24526432 </i>
    <i name="e_wo_entrp">    561.24526432 </i>
    <i name="e_0_energy">    561.24526432 </i>
   </energy>
  </scstep>
  <scstep>
   <time name="dav">    0.20    0.20</time>
   <time name="total">    0.20    0.20</time>
   <energy>
    <i name="e_fr_energy">     23.99603997 </i>
    <i name="e_wo_entrp">     23.99603997 </i>
    <i name="e_0_energy">     23.99603997 </i>
   </energy>
  </scstep>
  <scstep>
   <time name="dav">    0.23    0.23</time>
   <time name="total">    0.24    0.24</time>
   <energy>
    <i name="e_fr_energy">    -53.14308862 </i>
    <i name="e_wo_entrp">    -53.14308862 </i>
    <i name="e_0_energy">    -53.14308862 </i>
   </energy>
  </scstep>
  <scstep>
   <time name="dav">    0.28    0.28</time>
   <time name="total">    0.28    0.28</time>
   <energy>
    <i name="e_fr_energy">    -63.01362503 </i>
    <i name="e_wo_entrp">    -63.01362503 </i>
    <i name="e_0_energy">    -63.01362503 </i>
   </energy>
  </scstep>
  <scstep>
   <time name="dav">    0.25    0.25</time>
   <time name="total">    0.26    0.27</time>
   <energy>
    <i name="e_fr_energy">    -64.53608444 </i>
    <i name="e_wo_entrp">    -64.53608444 </i>
    <i name="e_0_energy">    -64.53608444 </i>
   </energy>
  </scstep>
  <scstep>
   <time name="diag">    0.05    0.05</time>
   <time name="diis">    0.07    0.07</time>
   <time name="orth">    0.01    0.01</time>
   <time name="total">    0.15    0.15</time>
   <energy>
    <i name="e_fr_energy">    -60.51868039 </i>
    <i name="e_wo_entrp">    -60.51868039 </i>
    <i name="e_0_energy">    -60.51868039 </i>
   </energy>
  </scstep>
  <scstep>
   <time name="diag">    0.05    0.05</time>
   <time name="diis">    0.07    0.07</time>
   <time name="orth">    0.01    0.01</time>
   <time name="total">    0.15    0.15</time>
   <energy>
    <i name="e_fr_energy">    -59.76327543 </i>
    <i name="e_wo_entrp">    -59.76327543 </i>
    <i name="e_0_energy">    -59.76327543 </i>
   </energy>
  </scstep>
  <scstep>
   <time name="diag">    0.05    0.05</time>
   <time name="diis">    0.08    0.08</time>
   <time name="orth">    0.01    0.01</time>
   <time name="total">    0.16    0.16</time>
   <energy>
    <i name="e_fr_energy">    -59.58722052 </i>
    <i name="e_wo_entrp">    -59.58722052 </i>
    <i name="e_0_energy">    -59.58722052 </i>
   </energy>
  </scstep>
  <scstep>
   <time name="diag">    0.05    0.05</time>
   <time name="diis">    0.09    0.09</time>
   <time name="orth">    0.01    0.01</time>
   <time name="total">    0.16    0.16</time>
   <energy>
    <i name="e_fr_energy">    -59.58379421 </i>
    <i name="e_wo_entrp">    -59.58379421 </i>
    <i name="e_0_energy">    -59.58379421 </i>
   </energy>
  </scstep>
  <scstep>
   <time name="diag">    0.05    0.05</time>
   <time name="diis">    0.10    0.10</time>
   <time name="orth">    0.01    0.01</time>
   <time name="total">    0.18    0.18</time>
   <energy>
    <i name="e_fr_energy">    -59.58614229 </i>
    <i name="e_wo_entrp">    -59.58614229 </i>
    <i name="e_0_energy">    -59.58614229 </i>
   </energy>
  </scstep>
  <scstep>
   <time name="diag">    0.05    0.05</time>
   <time name="diis">    0.09    0.09</time>
   <time name="orth">    0.01    0.01</time>
   <time name="total">    0.17    0.17</time>
   <energy>
    <i name="e_fr_energy">    -59.58770016 </i>
    <i name="e_wo_entrp">    -59.58770016 </i>
    <i name="e_0_energy">    -59.58770016 </i>
   </energy>
  </scstep>
  <scstep>
   <time name="diag">    0.05    0.05</time>
   <time name="diis">    0.09    0.09</time>
   <time name="orth">    0.01    0.01</time>
   <time name="total">    0.17    0.17</time>
   <energy>
    <i name="e_fr_energy">    -59.58835716 </i>
    <i name="e_wo_entrp">    -59.58835716 </i>
    <i name="e_0_energy">    -59.58835716 </i>
   </energy>
  </scstep>
  <scstep>
   <time name="diag">    0.05    0.05</time>
   <time name="diis">    0.08    0.08</time>
   <time name="orth">    0.01    0.01</time>
   <time name="total">    0.16    0.16</time>
   <energy>
    <i name="e_fr_energy">    -59.58876311 </i>
    <i name="e_wo_entrp">    -59.58876311 </i>
    <i name="e_0_energy">    -59.58876311 </i>
   </energy>
  </scstep>
  <scstep>
   <time name="diag">    0.05    0.05</time>
   <time name="diis">    0.07    0.07</time>
   <time name="orth">    0.01    0.01</time>
   <time name="total">    0.15    0.15</time>
   <energy>
    <i name="e_fr_energy">    -59.58901507 </i>
    <i name="e_wo_entrp">    -59.58901507 </i>
    <i name="e_0_energy">    -59.58901507 </i>
   </energy>
  </scstep>
  <scstep>
   <time name="diag">    0.05    0.05</time>
   <time name="diis">    0.08    0.08</time>
   <time name="orth">    0.01    0.01</time>
   <time name="total">    0.15    0.16</time>
   <energy>
    <i name="e_fr_energy">    -59.58913585 </i>
    <i name="e_wo_entrp">    -59.58913585 </i>
    <i name="e_0_energy">    -59.58913585 </i>
   </energy>
  </scstep>
  <scstep>
   <time name="diag">    0.05    0.05</time>
   <time name="diis">    0.07    0.07</time>
   <time name="orth">    0.01    0.01</time>
   <time name="total">    0.14    0.15</time>
   <energy>
    <i name="e_fr_energy">    -59.58922306 </i>
    <i name="e_wo_entrp">    -59.58922306 </i>
    <i name="e_0_energy">    -59.58922306 </i>
   </energy>
  </scstep>
  <scstep>
   <time name="diag">    0.05    0.05</time>
   <time name="diis">    0.06    0.06</time>
   <time name="orth">    0.01    0.01</time>
   <time name="total">    0.14    0.14</time>
   <energy>
    <i name="e_fr_energy">    -59.58926731 </i>
    <i name="e_wo_entrp">    -59.58926731 </i>
    <i name="e_0_energy">    -59.58926731 </i>
   </energy>
  </scstep>
  <scstep>
   <time name="diag">    0.05    0.05</time>
   <time name="diis">    0.06    0.06</time>
   <time name="orth">    0.01    0.01</time>
   <time name="total">    0.14    0.14</time>
   <energy>
    <i name="e_fr_energy">    -59.58929607 </i>
    <i name="e_wo_entrp">    -59.58929607 </i>
    <i name="e_0_energy">    -59.58929607 </i>
   </energy>
  </scstep>
  <scstep>
   <time name="diag">    0.05    0.05</time>
   <time name="diis">    0.06    0.06</time>
   <time name="orth">    0.01    0.01</time>
   <time name="total">    0.12    0.12</time>
   <energy>
    <i name="alphaZ">     59.19887464 </i>
    <i name="ewald">  -1796.99701092 </i>
    <i name="hartreedc">  -1476.81566335 </i>
    <i name="XCdc">    190.16934453 </i>
    <i name="pawpsdc">  11447.17184752 </i>
    <i name="pawaedc"> -11496.26675155 </i>
    <i name="eentropy">      0.00000000 </i>
    <i name="bandstr">   -755.13777753 </i>
    <i name="atom">   3769.08782378 </i>
    <i name="e_fr_energy">    -59.58931287 </i>
    <i name="e_wo_entrp">    -59.58931287 </i>
    <i name="e_0_energy">    -59.58931287 </i>
   </energy>
  </scstep>
  <structure>
   <crystal>
    <varray name="basis" >
     <v>       6.93361274       0.00000000       0.00000000 </v>
     <v>       0.00000000       6.93361274       0.00000000 </v>
     <v>       0.00000000       0.00000000       6.93361274 </v>
    </varray>
    <i name="volume">    333.33333333 </i>
    <varray name="rec_basis" >
     <v>       0.14422496       0.00000000       0.00000000 </v>
     <v>       0.00000000       0.14422496       0.00000000 </v>
     <v>       0.00000000       0.00000000       0.14422496 </v>
    </varray>
   </crystal>
   <varray name="positions" >
    <v>       0.00000000       0.94500000       0.01000000 </v>
    <v>       0.50000000       0.05500000       0.51000000 </v>
    <v>       0.23551848       0.01273658       0.85786114 </v>
    <v>       0.26448152       0.98726342       0.35786114 </v>
    <v>       0.73551848       0.98726342       0.35786114 </v>
    <v>       0.76448152       0.01273658       0.85786114 </v>
    <v>       0.00000000       0.09242025       0.25793285 </v>
    <v>       0.50000000       0.90757975       0.75793285 </v>
    <v>       0.00000000       0.66210658       0.06634486 </v>
    <v>       0.50000000       0.33789342       0.56634486 </v>
    <v>       0.00000000       0.40500000       0.85800000 </v>
    <v>       0.50000000       0.59500000       0.35800000 </v>
    <v>       0.22900000       0.17300000       0.10200000 </v>
    <v>       0.27100000       0.82700000       0.60200000 </v>
    <v>       0.72900000       0.82700000       0.60200000 </v>
    <v>       0.77100000       0.17300000       0.10200000 </v>
   </varray>
  </structure>
  <varray name="forces" >
   <v>       0.00000000      -0.16447970      -0.39717971 </v>
   <v>       0.00000000       0.16447970      -0.39717971 </v>
   <v>      -2.35611899       0.77868846       0.07253986 </v>
   <v>       2.35611899      -0.77868846       0.07253986 </v>
   <v>      -2.35611899      -0.77868846       0.07253986 </v>
   <v>       2.35611899       0.77868846       0.07253986 </v>
   <v>       0.00000000       1.56958593      -0.17883427 </v>
   <v>       0.00000000      -1.56958593      -0.17883427 </v>
   <v>       0.00000000      -1.26636292       0.46138834 </v>
   <v>       0.00000000       1.26636292       0.46138834 </v>
   <v>       0.00000000      -0.22038846      -0.41509786 </v>
   <v>       0.00000000       0.22038846      -0.41509786 </v>
   <v>       2.24998907       1.62890006       0.19232189 </v>
   <v>      -2.24998907      -1.62890006       0.19232189 </v>
   <v>       2.24998907      -1.62890006       0.19232189 </v>
   <v>      -2.24998907       1.62890006       0.19232189 </v>
  </varray>
  <varray name="stress" >
   <v>     308.38685140       0.00000000       0.00000000 </v>
   <v>       0.00000000      35.79669392       0.00000000 </v>
   <v>       0.00000000       0.00000000     151.74896987 </v>
  </varray>
  <energy>
   <i name="e_fr_energy">    -59.58931287 </i>
   <i name="e_wo_entrp">    -59.58931287 </i>
   <i name="e_0_energy">      0.00000000 </i>
  </energy>
  <time name="totalsc">    3.54    3.60</time>
 </calculation>
 <calculation>
  <scstep>
   <time name="dav">    0.18    0.18</time>
   <time name="total">    0.20    0.20</time>
   <energy>
    <i name="alphaZ">     44.29687559 </i>
    <i name="ewald">  -1803.71925982 </i>
    <i name="hartreedc">  -1201.35675982 </i>
    <i name="XCdc">    170.70889580 </i>
    <i name="pawpsdc">  11447.15843675 </i>
    <i name="pawaedc"> -11496.25297346 </i>
    <i name="eentropy">      0.00000000 </i>
    <i name="bandstr">  -1011.36873775 </i>
    <i name="atom">   3769.08782378 </i>
    <i name="e_fr_energy">    -81.44569892 </i>
    <i name="e_wo_entrp">    -81.44569892 </i>
    <i name="e_0_energy">    -81.44569892 </i>
   </energy>
  </scstep>
  <scstep>
   <time name="diag">    0.05    0.05</time>
   <time name="diis">    0.09    0.09</time>
   <time name="orth">    0.01    0.01</time>
   <time name="total">    0.16    0.16</time>
   <energy>
    <i name="e_fr_energy">    -70.97620630 </i>
    <i name="e_wo_entrp">    -70.97620630 </i>
    <i name="e_0_energy">    -70.97620630 </i>
   </energy>
  </scstep>
  <scstep>
   <time name="diag">    0.05    0.05</time>
   <time name="diis">    0.09    0.09</time>
   <time name="orth">    0.01    0.01</time>
   <time name="total">    0.16    0.16</time>
   <energy>
    <i name="e_fr_energy">    -67.64132187 </i>
    <i name="e_wo_entrp">    -67.64132187 </i>
    <i name="e_0_energy">    -67.64132187 </i>
   </energy>
  </scstep>
  <scstep>
   <time name="diag">    0.05    0.05</time>
   <time name="diis">    0.09    0.09</time>
   <time name="orth">    0.01    0.01</time>
   <time name="total">    0.17    0.17</time>
   <energy>
    <i name="e_fr_energy">    -67.60870383 </i>
    <i name="e_wo_entrp">    -67.60870383 </i>
    <i name="e_0_energy">    -67.60870383 </i>
   </energy>
  </scstep>
  <scstep>
   <time name="diag">    0.05    0.05</time>
   <time name="diis">    0.10    0.10</time>
   <time name="orth">    0.01    0.01</time>
   <time name="total">    0.17    0.17</time>
   <energy>
    <i name="e_fr_energy">    -67.59677246 </i>
    <i name="e_wo_entrp">    -67.59677246 </i>
    <i name="e_0_energy">    -67.59677246 </i>
   </energy>
  </scstep>
  <scstep>
   <time name="diag">    0.05    0.05</time>
   <time name="diis">    0.10    0.10</time>
   <time name="orth">    0.01    0.01</time>
   <time name="total">    0.17    0.17</time>
   <energy>
    <i name="e_fr_energy">    -67.60593782 </i>
    <i name="e_wo_entrp">    -67.60593782 </i>
    <i name="e_0_energy">    -67.60593782 </i>
   </energy>
  </scstep>
  <scstep>
   <time name="diag">    0.06    0.06</time>
   <time name="diis">    0.11    0.11</time>
   <time name="orth">    0.01    0.01</time>
   <time name="total">    0.20    0.20</time>
   <energy>
    <i name="e_fr_energy">    -67.62398587 </i>
    <i name="e_wo_entrp">    -67.62398587 </i>
    <i name="e_0_energy">    -67.62398587 </i>
   </energy>
  </scstep>
  <scstep>
   <time name="diag">    0.05    0.05</time>
   <time name="diis">    0.11    0.11</time>
   <time name="orth">    0.01    0.01</time>
   <time name="total">    0.19    0.19</time>
   <energy>
    <i name="e_fr_energy">    -67.63270720 </i>
    <i name="e_wo_entrp">    -67.63270720 </i>
    <i name="e_0_energy">    -67.63270720 </i>
   </energy>
  </scstep>
  <scstep>
   <time name="diag">    0.05    0.05</time>
   <time name="diis">    0.10    0.10</time>
   <time name="orth">    0.01    0.01</time>
   <time name="total">    0.18    0.18</time>
   <energy>
    <i name="e_fr_energy">    -67.63959598 </i>
    <i name="e_wo_entrp">    -67.63959598 </i>
    <i name="e_0_energy">    -67.63959598 </i>
   </energy>
  </scstep>
  <scstep>
   <time name="diag">    0.05    0.05</time>
   <time name="diis">    0.10    0.10</time>
   <time name="orth">    0.01    0.01</time>
   <time name="total">    0.17    0.17</time>
   <energy>
    <i name="e_fr_energy">    -67.64315442 </i>
    <i name="e_wo_entrp">    -67.64315442 </i>
    <i name="e_0_energy">    -67.64315442 </i>
   </energy>
  </scstep>
  <scstep>
   <time name="diag">    0.05    0.05</time>
   <time name="diis">    0.10    0.10</time>
   <time name="orth">    0.01    0.01</time>
   <time name="total">    0.17    0.17</time>
   <energy>
    <i name="e_fr_energy">    -67.64571349 </i>
    <i name="e_wo_entrp">    -67.64571349 </i>
    <i name="e_0_energy">    -67.64571349 </i>
   </energy>
  </scstep>
  <scstep>
   <time name="diag">    0.05    0.05</time>
   <time name="diis">    0.10    0.10</time>
   <time name="orth">    0.01    0.01</time>
   <time name="total">    0.18    0.18</time>
   <energy>
    <i name="e_fr_energy">    -67.64745573 </i>
    <i name="e_wo_entrp">    -67.64745573 </i>
    <i name="e_0_energy">    -67.64745573 </i>
   </energy>
  </scstep>
  <scstep>
   <time name="diag">    0.05    0.05</time>
   <time name="diis">    0.10    0.10</time>
   <time name="orth">    0.01    0.01</time>
   <time name="total">    0.17    0.17</time>
   <energy>
    <i name="e_fr_energy">    -67.64858085 </i>
    <i name="e_wo_entrp">    -67.64858085 </i>
    <i name="e_0_energy">    -67.64858085 </i>
   </energy>
  </scstep>
  <scstep>
   <time name="diag">    0.05    0.05</time>
   <time name="diis">    0.10    0.10</time>
   <time name="orth">    0.01    0.01</time>
   <time name="total">    0.17    0.17</time>
   <energy>
    <i name="e_fr_energy">    -67.64943985 </i>
    <i name="e_wo_entrp">    -67.64943985 </i>
    <i name="e_0_energy">    -67.64943985 </i>
   </energy>
  </scstep>
  <scstep>
   <time name="diag">    0.05    0.05</time>
   <time name="diis">    0.10    0.10</time>
   <time name="orth">    0.01    0.01</time>
   <time name="total">    0.18    0.18</time>
   <energy>
    <i name="e_fr_energy">    -67.64999652 </i>
    <i name="e_wo_entrp">    -67.64999652 </i>
    <i name="e_0_energy">    -67.64999652 </i>
   </energy>
  </scstep>
  <scstep>
   <time name="diag">    0.05    0.05</time>
   <time name="diis">    0.09    0.09</time>
   <time name="orth">    0.01    0.01</time>
   <time name="total">    0.17    0.17</time>
   <energy>
    <i name="e_fr_energy">    -67.65042787 </i>
    <i name="e_wo_entrp">    -67.65042787 </i>
    <i name="e_0_energy">    -67.65042787 </i>
   </energy>
  </scstep>
  <scstep>
   <time name="diag">    0.05    0.05</time>
   <time name="diis">    0.09    0.09</time>
   <time name="orth">    0.01    0.01</time>
   <time name="total">    0.17    0.17</time>
   <energy>
    <i name="e_fr_energy">    -67.65071462 </i>
    <i name="e_wo_entrp">    -67.65071462 </i>
    <i name="e_0_energy">    -67.65071462 </i>
   </energy>
  </scstep>
  <scstep>
   <time name="diag">    0.05    0.05</time>
   <time name="diis">    0.10    0.10</time>
   <time name="orth">    0.01    0.01</time>
   <time name="total">    0.18    0.18</time>
   <energy>
    <i name="e_fr_energy">    -67.65095837 </i>
    <i name="e_wo_entrp">    -67.65095837 </i>
    <i name="e_0_energy">    -67.65095837 </i>
   </energy>
  </scstep>
  <scstep>
   <time name="diag">    0.05    0.05</time>
   <time name="diis">    0.09    0.09</time>
   <time name="orth">    0.01    0.01</time>
   <time name="total">    0.16    0.16</time>
   <energy>
    <i name="e_fr_energy">    -67.65111277 </i>
    <i name="e_wo_entrp">    -67.65111277 </i>
    <i name="e_0_energy">    -67.65111277 </i>
   </energy>
  </scstep>
  <scstep>
   <time name="diag">    0.05    0.05</time>
   <time name="diis">    0.08    0.08</time>
   <time name="orth">    0.01    0.01</time>
   <time name="total">    0.16    0.16</time>
   <energy>
    <i name="e_fr_energy">    -67.65124002 </i>
    <i name="e_wo_entrp">    -67.65124002 </i>
    <i name="e_0_energy">    -67.65124002 </i>
   </energy>
  </scstep>
  <scstep>
   <time name="diag">    0.05    0.05</time>
   <time name="diis">    0.08    0.08</time>
   <time name="orth">    0.01    0.01</time>
   <time name="total">    0.16    0.16</time>
   <energy>
    <i name="e_fr_energy">    -67.65132694 </i>
    <i name="e_wo_entrp">    -67.65132694 </i>
    <i name="e_0_energy">    -67.65132694 </i>
   </energy>
  </scstep>
  <scstep>
   <time name="diag">    0.05    0.05</time>
   <time name="diis">    0.08    0.08</time>
   <time name="orth">    0.01    0.01</time>
   <time name="total">    0.15    0.16</time>
   <energy>
    <i name="e_fr_energy">    -67.65139392 </i>
    <i name="e_wo_entrp">    -67.65139392 </i>
    <i name="e_0_energy">    -67.65139392 </i>
   </energy>
  </scstep>
  <scstep>
   <time name="diag">    0.05    0.05</time>
   <time name="diis">    0.08    0.08</time>
   <time name="orth">    0.01    0.01</time>
   <time name="total">    0.15    0.15</time>
   <energy>
    <i name="e_fr_energy">    -67.65144267 </i>
    <i name="e_wo_entrp">    -67.65144267 </i>
    <i name="e_0_energy">    -67.65144267 </i>
   </energy>
  </scstep>
  <scstep>
   <time name="diag">    0.05    0.05</time>
   <time name="diis">    0.07    0.07</time>
   <time name="orth">    0.01    0.01</time>
   <time name="total">    0.15    0.15</time>
   <energy>
    <i name="e_fr_energy">    -67.65148125 </i>
    <i name="e_wo_entrp">    -67.65148125 </i>
    <i name="e_0_energy">    -67.65148125 </i>
   </energy>
  </scstep>
  <scstep>
   <time name="diag">    0.05    0.05</time>
   <time name="diis">    0.08    0.08</time>
   <time name="orth">    0.01    0.01</time>
   <time name="total">    0.16    0.16</time>
   <energy>
    <i name="e_fr_energy">    -67.65151532 </i>
    <i name="e_wo_entrp">    -67.65151532 </i>
    <i name="e_0_energy">    -67.65151532 </i>
   </energy>
  </scstep>
  <scstep>
   <time name="diag">    0.05    0.05</time>
   <time name="diis">    0.06    0.06</time>
   <time name="orth">    0.01    0.01</time>
   <time name="total">    0.14    0.14</time>
   <energy>
    <i name="e_fr_energy">    -67.65153788 </i>
    <i name="e_wo_entrp">    -67.65153788 </i>
    <i name="e_0_energy">    -67.65153788 </i>
   </energy>
  </scstep>
  <scstep>
   <time name="diag">    0.05    0.05</time>
   <time name="diis">    0.08    0.08</time>
   <time name="orth">    0.01    0.01</time>
   <time name="total">    0.16    0.17</time>
   <energy>
    <i name="e_fr_energy">    -67.65156222 </i>
    <i name="e_wo_entrp">    -67.65156222 </i>
    <i name="e_0_energy">    -67.65156222 </i>
   </energy>
  </scstep>
  <scstep>
   <time name="diag">    0.05    0.05</time>
   <time name="diis">    0.06    0.06</time>
   <time name="orth">    0.01    0.01</time>
   <time name="total">    0.12    0.12</time>
   <energy>
    <i name="alphaZ">     44.29687559 </i>
    <i name="ewald">  -1803.71925982 </i>
    <i name="hartreedc">  -1373.16377979 </i>
    <i name="XCdc">    181.28608074 </i>
    <i name="pawpsdc">   6333.34915885 </i>
    <i name="pawaedc">  -6383.58001665 </i>
    <i name="eentropy">      0.00000000 </i>
    <i name="bandstr">   -835.20845818 </i>
    <i name="atom">   3769.08782378 </i>
    <i name="e_fr_energy">    -67.65157548 </i>
    <i name="e_wo_entrp">    -67.65157548 </i>
    <i name="e_0_energy">    -67.65157548 </i>
   </energy>
  </scstep>
  <structure>
   <crystal>
    <varray name="basis" >
     <v>       8.27494018       0.00000000       0.00000000 </v>
     <v>       0.00000000       7.08931033       0.00000000 </v>
     <v>       0.00000000       0.00000000       7.59364431 </v>
    </varray>
    <i name="volume">    445.47065562 </i>
    <varray name="rec_basis" >
     <v>       0.12084680       0.00000000       0.00000000 </v>
     <v>       0.00000000       0.14105744       0.00000000 </v>
     <v>       0.00000000       0.00000000       0.13168908 </v>
    </varray>
   </crystal>
   <varray name="positions" >
    <v>       0.00000000       0.94385558       0.00723651 </v>
    <v>       0.50000000       0.05614442       0.50723651 </v>
    <v>       0.21912509       0.01815454       0.85836586 </v>
    <v>       0.28087491       0.98184546       0.35836586 </v>
    <v>       0.71912509       0.98184546       0.35836586 </v>
    <v>       0.78087491       0.01815454       0.85836586 </v>
    <v>       0.00000000       0.10334111       0.25668856 </v>
    <v>       0.50000000       0.89665889       0.75668856 </v>
    <v>       0.00000000       0.65329549       0.06955511 </v>
    <v>       0.50000000       0.34670451       0.56955511 </v>
    <v>       0.00000000       0.40346658       0.85511183 </v>
    <v>       0.50000000       0.59653342       0.35511183 </v>
    <v>       0.24465496       0.18433355       0.10333814 </v>
    <v>       0.25534504       0.81566645       0.60333814 </v>
    <v>       0.74465496       0.81566645       0.60333814 </v>
    <v>       0.75534504       0.18433355       0.10333814 </v>
   </varray>
  </structure>
  <varray name="forces" >
   <v>       0.00000000       0.86099744      -0.29831748 </v>
   <v>       0.00000000      -0.86099744      -0.29831748 </v>
   <v>      -2.13472101      -0.43897122       0.91574803 </v>
   <v>       2.13472101       0.43897122       0.91574803 </v>
   <v>      -2.13472101       0.43897122       0.91574803 </v>
   <v>       2.13472101      -0.43897122       0.91574803 </v>
   <v>       0.00000000      -0.47547113      -2.60615672 </v>
   <v>       0.00000000       0.47547113      -2.60615672 </v>
   <v>       0.00000000       0.76197535      -0.34215984 </v>
   <v>       0.00000000      -0.76197535      -0.34215984 </v>
   <v>       0.00000000      -0.45185782       0.07343662 </v>
   <v>       0.00000000       0.45185782       0.07343662 </v>
   <v>       0.17971779      -0.05583868       0.67085068 </v>
   <v>      -0.17971779       0.05583868       0.67085068 </v>
   <v>       0.17971779       0.05583868       0.67085068 </v>
   <v>      -0.17971779      -0.05583868       0.67085068 </v>
  </varray>
  <varray name="stress" >
   <v>       3.84630283       0.00000000       0.00000000 </v>
   <v>       0.00000000     -66.94880239       0.00000000 </v>
   <v>       0.00000000       0.00000000     -32.81814162 </v>
  </varray>
  <energy>
   <i name="e_fr_energy">    -67.65157548 </i>
   <i name="e_wo_entrp">    -67.65157548 </i>
   <i name="e_0_energy">      0.00000000 </i>
  </energy>
  <time name="totalsc">    4.86    4.89</time>
 </calculation>
 <calculation>
  <scstep>
   <time name="dav">    0.20    0.20</time>
   <time name="total">    0.22    0.22</time>
   <energy>
    <i name="alphaZ">     44.50761584 </i>
    <i name="ewald">  -1804.29199735 </i>
    <i name="hartreedc">  -1377.32680365 </i>
    <i name="XCdc">    181.61374060 </i>
    <i name="pawpsdc">   6333.40160431 </i>
    <i name="pawaedc">  -6383.63070558 </i>
    <i name="eentropy">      0.00000000 </i>
    <i name="bandstr">   -831.01902333 </i>
    <i name="atom">   3769.08782378 </i>
    <i name="e_fr_energy">    -67.65774537 </i>
    <i name="e_wo_entrp">    -67.65774537 </i>
    <i name="e_0_energy">    -67.65774537 </i>
   </energy>
  </scstep>
  <scstep>
   <time name="diag">    0.05    0.05</time>
   <time name="diis">    0.08    0.08</time>
   <time name="orth">    0.01    0.01</time>
   <time name="total">    0.16    0.16</time>
   <energy>
    <i name="e_fr_energy">    -67.65375320 </i>
    <i name="e_wo_entrp">    -67.65375320 </i>
    <i name="e_0_energy">    -67.65375320 </i>
   </energy>
  </scstep>
  <scstep>
   <time name="diag">    0.05    0.05</time>
   <time name="diis">    0.08    0.08</time>
   <time name="orth">    0.01    0.01</time>
   <time name="total">    0.16    0.16</time>
   <energy>
    <i name="e_fr_energy">    -67.65274023 </i>
    <i name="e_wo_entrp">    -67.65274023 </i>
    <i name="e_0_energy">    -67.65274023 </i>
   </energy>
  </scstep>
  <scstep>
   <time name="diag">    0.05    0.05</time>
   <time name="diis">    0.09    0.09</time>
   <time name="orth">    0.01    0.01</time>
   <time name="total">    0.17    0.17</time>
   <energy>
    <i name="e_fr_energy">    -67.65270723 </i>
    <i name="e_wo_entrp">    -67.65270723 </i>
    <i name="e_0_energy">    -67.65270723 </i>
   </energy>
  </scstep>
  <scstep>
   <time name="diag">    0.05    0.05</time>
   <time name="diis">    0.08    0.08</time>
   <time name="orth">    0.01    0.01</time>
   <time name="total">    0.16    0.16</time>
   <energy>
    <i name="e_fr_energy">    -67.65270838 </i>
    <i name="e_wo_entrp">    -67.65270838 </i>
    <i name="e_0_energy">    -67.65270838 </i>
   </energy>
  </scstep>
  <scstep>
   <time name="diag">    0.05    0.05</time>
   <time name="diis">    0.05    0.05</time>
   <time name="orth">    0.01    0.01</time>
   <time name="total">    0.12    0.12</time>
   <energy>
    <i name="alphaZ">     44.50761584 </i>
    <i name="ewald">  -1804.29199735 </i>
    <i name="hartreedc">  -1374.37542725 </i>
    <i name="XCdc">    181.41515619 </i>
    <i name="pawpsdc">   6381.03292278 </i>
    <i name="pawaedc">  -6431.27603374 </i>
    <i name="eentropy">      0.00000000 </i>
    <i name="bandstr">   -833.75276076 </i>
    <i name="atom">   3769.08782378 </i>
    <i name="e_fr_energy">    -67.65270050 </i>
    <i name="e_wo_entrp">    -67.65270050 </i>
    <i name="e_0_energy">    -67.65270050 </i>
   </energy>
  </scstep>
  <structure>
   <crystal>
    <varray name="basis" >
     <v>       8.25147277       0.00000000       0.00000000 </v>
     <v>       0.00000000       7.08658630       0.00000000 </v>
     <v>       0.00000000       0.00000000       7.58209662 </v>
    </varray>
    <i name="volume">    443.36138525 </i>
    <varray name="rec_basis" >
     <v>       0.12119049       0.00000000       0.00000000 </v>
     <v>       0.00000000       0.14111167       0.00000000 </v>
     <v>       0.00000000       0.00000000       0.13188964 </v>
    </varray>
   </crystal>
   <varray name="positions" >
    <v>       0.00000000       0.94387517       0.00728065 </v>
    <v>       0.50000000       0.05612483       0.50728065 </v>
    <v>       0.21936541       0.01806183       0.85835780 </v>
    <v>       0.28063459       0.98193817       0.35835780 </v>
    <v>       0.71936541       0.98193817       0.35835780 </v>
    <v>       0.78063459       0.01806183       0.85835780 </v>
    <v>       0.00000000       0.10315424       0.25670844 </v>
    <v>       0.50000000       0.89684576       0.75670844 </v>
    <v>       0.00000000       0.65344626       0.06950382 </v>
    <v>       0.50000000       0.34655374       0.56950382 </v>
    <v>       0.00000000       0.40349282       0.85515797 </v>
    <v>       0.50000000       0.59650718       0.35515797 </v>
    <v>       0.24442547       0.18413962       0.10331676 </v>
    <v>       0.25557454       0.81586038       0.60331676 </v>
    <v>       0.74442546       0.81586038       0.60331676 </v>
    <v>       0.75557453       0.18413962       0.10331676 </v>
   </varray>
  </structure>
  <varray name="forces" >
   <v>       0.00000000       0.87410229      -0.30944904 </v>
   <v>       0.00000000      -0.87410229      -0.30944904 </v>
   <v>      -2.13901959      -0.43215149       0.91187140 </v>
   <v>       2.13901959       0.43215149       0.91187140 </v>
   <v>      -2.13901959       0.43215149       0.91187140 </v>
   <v>       2.13901959      -0.43215149       0.91187140 </v>
   <v>       0.00000000      -0.44908418      -2.59470604 </v>
   <v>       0.00000000       0.44908418      -2.59470604 </v>
   <v>       0.00000000       0.73391650      -0.33113004 </v>
   <v>       0.00000000      -0.73391650      -0.33113004 </v>
   <v>       0.00000000      -0.45045626       0.06848917 </v>
   <v>       0.00000000       0.45045626       0.06848917 </v>
   <v>       0.19445058      -0.04349703       0.67152657 </v>
   <v>      -0.19445058       0.04349703       0.67152657 </v>
   <v>       0.19445058       0.04349703       0.67152657 </v>
   <v>      -0.19445058      -0.04349703       0.67152657 </v>
  </varray>
  <varray name="stress" >
   <v>       6.64102643       0.00000000       0.00000000 </v>
   <v>       0.00000000     -66.47137306       0.00000000 </v>
   <v>       0.00000000       0.00000000     -31.45261260 </v>
  </varray>
  <energy>
   <i name="e_fr_energy">    -67.65270050 </i>
   <i name="e_wo_entrp">    -67.65270050 </i>
   <i name="e_0_energy">      0.00000000 </i>
  </energy>
  <time name="totalsc">    1.15    1.16</time>
 </calculation>
 <calculation>
  <scstep>
   <time name="dav">    0.17    0.17</time>
   <time name="total">    0.19    0.19</time>
   <energy>
    <i name="alphaZ">     45.59223379 </i>
    <i name="ewald">  -1798.11730996 </i>
    <i name="hartreedc">  -1400.34563628 </i>
    <i name="XCdc">    184.12911353 </i>
    <i name="pawpsdc">   6380.86014566 </i>
    <i name="pawaedc">  -6431.10270174 </i>
    <i name="eentropy">      0.00000000 </i>
    <i name="bandstr">   -820.04793539 </i>
    <i name="atom">   3769.08782378 </i>
    <i name="e_fr_energy">    -69.94426660 </i>
    <i name="e_wo_entrp">    -69.94426660 </i>
    <i name="e_0_energy">    -69.94426660 </i>
   </energy>
  </scstep>
  <scstep>
   <time name="diag">    0.05    0.05</time>
   <time name="diis">    0.08    0.08</time>
   <time name="orth">    0.01    0.01</time>
   <time name="total">    0.15    0.15</time>
   <energy>
    <i name="e_fr_energy">    -70.55722599 </i>
    <i name="e_wo_entrp">    -70.55722599 </i>
    <i name="e_0_energy">    -70.55722599 </i>
   </energy>
  </scstep>
  <scstep>
   <time name="diag">    0.05    0.05</time>
   <time name="diis">    0.10    0.10</time>
   <time name="orth">    0.01    0.01</time>
   <time name="total">    0.17    0.17</time>
   <energy>
    <i name="e_fr_energy">    -70.12940718 </i>
    <i name="e_wo_entrp">    -70.12940718 </i>
    <i name="e_0_energy">    -70.12940718 </i>
   </energy>
  </scstep>
  <scstep>
   <time name="diag">    0.05    0.05</time>
   <time name="diis">    0.08    0.08</time>
   <time name="orth">    0.01    0.01</time>
   <time name="total">    0.16    0.16</time>
   <energy>
    <i name="e_fr_energy">    -70.00889151 </i>
    <i name="e_wo_entrp">    -70.00889151 </i>
    <i name="e_0_energy">    -70.00889151 </i>
   </energy>
  </scstep>
  <scstep>
   <time name="diag">    0.05    0.05</time>
   <time name="diis">    0.10    0.10</time>
   <time name="orth">    0.01    0.01</time>
   <time name="total">    0.17    0.17</time>
   <energy>
    <i name="e_fr_energy">    -70.00917593 </i>
    <i name="e_wo_entrp">    -70.00917593 </i>
    <i name="e_0_energy">    -70.00917593 </i>
   </energy>
  </scstep>
  <scstep>
   <time name="diag">    0.05    0.05</time>
   <time name="diis">    0.09    0.09</time>
   <time name="orth">    0.01    0.01</time>
   <time name="total">    0.16    0.17</time>
   <energy>
    <i name="e_fr_energy">    -70.00935073 </i>
    <i name="e_wo_entrp">    -70.00935073 </i>
    <i name="e_0_energy">    -70.00935073 </i>
   </energy>
  </scstep>
  <scstep>
   <time name="diag">    0.05    0.05</time>
   <time name="diis">    0.09    0.09</time>
   <time name="orth">    0.01    0.01</time>
   <time name="total">    0.17    0.17</time>
   <energy>
    <i name="e_fr_energy">    -70.01018106 </i>
    <i name="e_wo_entrp">    -70.01018106 </i>
    <i name="e_0_energy">    -70.01018106 </i>
   </energy>
  </scstep>
  <scstep>
   <time name="diag">    0.05    0.05</time>
   <time name="diis">    0.10    0.10</time>
   <time name="orth">    0.01    0.01</time>
   <time name="total">    0.17    0.17</time>
   <energy>
    <i name="e_fr_energy">    -70.01092190 </i>
    <i name="e_wo_entrp">    -70.01092190 </i>
    <i name="e_0_energy">    -70.01092190 </i>
   </energy>
  </scstep>
  <scstep>
   <time name="diag">    0.05    0.05</time>
   <time name="diis">    0.09    0.09</time>
   <time name="orth">    0.01    0.01</time>
   <time name="total">    0.17    0.17</time>
   <energy>
    <i name="e_fr_energy">    -70.01166836 </i>
    <i name="e_wo_entrp">    -70.01166836 </i>
    <i name="e_0_energy">    -70.01166836 </i>
   </energy>
  </scstep>
  <scstep>
   <time name="diag">    0.05    0.05</time>
   <time name="diis">    0.09    0.09</time>
   <time name="orth">    0.01    0.01</time>
   <time name="total">    0.17    0.17</time>
   <energy>
    <i name="e_fr_energy">    -70.01201176 </i>
    <i name="e_wo_entrp">    -70.01201176 </i>
    <i name="e_0_energy">    -70.01201176 </i>
   </energy>
  </scstep>
  <scstep>
   <time name="diag">    0.05    0.05</time>
   <time name="diis">    0.08    0.08</time>
   <time name="orth">    0.01    0.01</time>
   <time name="total">    0.16    0.16</time>
   <energy>
    <i name="e_fr_energy">    -70.01221643 </i>
    <i name="e_wo_entrp">    -70.01221643 </i>
    <i name="e_0_energy">    -70.01221643 </i>
   </energy>
  </scstep>
  <scstep>
   <time name="diag">    0.05    0.05</time>
   <time name="diis">    0.09    0.09</time>
   <time name="orth">    0.01    0.01</time>
   <time name="total">    0.17    0.17</time>
   <energy>
    <i name="e_fr_energy">    -70.01233968 </i>
    <i name="e_wo_entrp">    -70.01233968 </i>
    <i name="e_0_energy">    -70.01233968 </i>
   </energy>
  </scstep>
  <scstep>
   <time name="diag">    0.05    0.05</time>
   <time name="diis">    0.08    0.08</time>
   <time name="orth">    0.01    0.01</time>
   <time name="total">    0.15    0.15</time>
   <energy>
    <i name="e_fr_energy">    -70.01241365 </i>
    <i name="e_wo_entrp">    -70.01241365 </i>
    <i name="e_0_energy">    -70.01241365 </i>
   </energy>
  </scstep>
  <scstep>
   <time name="diag">    0.05    0.05</time>
   <time name="diis">    0.07    0.07</time>
   <time name="orth">    0.01    0.01</time>
   <time name="total">    0.14    0.14</time>
   <energy>
    <i name="e_fr_energy">    -70.01245345 </i>
    <i name="e_wo_entrp">    -70.01245345 </i>
    <i name="e_0_energy">    -70.01245345 </i>
   </energy>
  </scstep>
  <scstep>
   <time name="diag">    0.05    0.05</time>
   <time name="diis">    0.07    0.07</time>
   <time name="orth">    0.01    0.01</time>
   <time name="total">    0.14    0.14</time>
   <energy>
    <i name="e_fr_energy">    -70.01247666 </i>
    <i name="e_wo_entrp">    -70.01247666 </i>
    <i name="e_0_energy">    -70.01247666 </i>
   </energy>
  </scstep>
  <scstep>
   <time name="diag">    0.05    0.05</time>
   <time name="diis">    0.07    0.07</time>
   <time name="orth">    0.01    0.01</time>
   <time name="total">    0.13    0.13</time>
   <energy>
    <i name="alphaZ">     45.59223379 </i>
    <i name="ewald">  -1798.11730996 </i>
    <i name="hartreedc">  -1382.08620362 </i>
    <i name="XCdc">    183.15503494 </i>
    <i name="pawpsdc">   7243.86997245 </i>
    <i name="pawaedc">  -7294.50198342 </i>
    <i name="eentropy">      0.00000000 </i>
    <i name="bandstr">   -837.01205702 </i>
    <i name="atom">   3769.08782378 </i>
    <i name="e_fr_energy">    -70.01248907 </i>
    <i name="e_wo_entrp">    -70.01248907 </i>
    <i name="e_0_energy">    -70.01248907 </i>
   </energy>
  </scstep>
  <structure>
   <crystal>
    <varray name="basis" >
     <v>       8.57399731       0.00000000       0.00000000 </v>
     <v>       0.00000000       6.72253795       0.00000000 </v>
     <v>       0.00000000       0.00000000       7.50904522 </v>
    </varray>
    <i name="volume">    432.81402491 </i>
    <varray name="rec_basis" >
     <v>       0.11663171       0.00000000       0.00000000 </v>
     <v>       0.00000000       0.14875334       0.00000000 </v>
     <v>       0.00000000       0.00000000       0.13317272 </v>
    </varray>
   </crystal>
   <varray name="positions" >
    <v>       0.00000000       0.94961061       0.00488013 </v>
    <v>       0.50000000       0.05038939       0.50488013 </v>
    <v>       0.20451321       0.01604996       0.86421955 </v>
    <v>       0.29548679       0.98395004       0.36421955 </v>
    <v>       0.70451321       0.98395004       0.36421955 </v>
    <v>       0.79548679       0.01604996       0.86421955 </v>
    <v>       0.00000000       0.10196168       0.24005943 </v>
    <v>       0.50000000       0.89803832       0.74005943 </v>
    <v>       0.00000000       0.65692921       0.06791367 </v>
    <v>       0.50000000       0.34307079       0.56791367 </v>
    <v>       0.00000000       0.40017671       0.85513397 </v>
    <v>       0.50000000       0.59982329       0.35513397 </v>
    <v>       0.24784077       0.18576854       0.10778685 </v>
    <v>       0.25215923       0.81423146       0.60778685 </v>
    <v>       0.74784077       0.81423146       0.60778685 </v>
    <v>       0.75215923       0.18576854       0.10778685 </v>
   </varray>
  </structure>
  <varray name="forces" >
   <v>       0.00000000       0.18868781      -0.46701179 </v>
   <v>       0.00000000      -0.18868781      -0.46701179 </v>
   <v>      -1.33454266       0.01422310      -0.01823734 </v>
   <v>       1.33454266      -0.01422310      -0.01823734 </v>
   <v>      -1.33454266      -0.01422310      -0.01823734 </v>
   <v>       1.33454266       0.01422310      -0.01823734 </v>
   <v>       0.00000000       0.44670309      -0.98078460 </v>
   <v>       0.00000000      -0.44670309      -0.98078460 </v>
   <v>       0.00000000      -0.62927052      -0.05489730 </v>
   <v>       0.00000000       0.62927052      -0.05489730 </v>
   <v>       0.00000000      -0.60333906       0.07322655 </v>
   <v>       0.00000000       0.60333906       0.07322655 </v>
   <v>       0.11862352       0.13282887       0.73297091 </v>
   <v>      -0.11862352      -0.13282887       0.73297091 </v>
   <v>       0.11862352      -0.13282887       0.73297091 </v>
   <v>      -0.11862352       0.13282887       0.73297091 </v>
  </varray>
  <varray name="stress" >
   <v>     -11.88442717       0.00000000       0.00000000 </v>
   <v>       0.00000000     -22.82684062       0.00000000 </v>
   <v>       0.00000000       0.00000000      -3.24379345 </v>
  </varray>
  <energy>
   <i name="e_fr_energy">    -70.01248907 </i>
   <i name="e_wo_entrp">    -70.01248907 </i>
   <i name="e_0_energy">      0.00000000 </i>
  </energy>
  <time name="totalsc">    2.75    2.77</time>
 </calculation>
 <calculation>
  <scstep>
   <time name="dav">    0.19    0.19</time>
   <time name="total">    0.21    0.21</time>
   <energy>
    <i name="alphaZ">     46.11383635 </i>
    <i name="ewald">  -1786.78638962 </i>
    <i name="hartreedc">  -1401.62960514 </i>
    <i name="XCdc">    184.47536479 </i>
    <i name="pawpsdc">   7243.90814527 </i>
    <i name="pawaedc">  -7294.54012437 </i>
    <i name="eentropy">      0.00000000 </i>
    <i name="bandstr">   -830.97419016 </i>
    <i name="atom">   3769.08782378 </i>
    <i name="e_fr_energy">    -70.34513911 </i>
    <i name="e_wo_entrp">    -70.34513911 </i>
    <i name="e_0_energy">    -70.34513911 </i>
   </energy>
  </scstep>
  <scstep>
   <time name="diag">    0.05    0.05</time>
   <time name="diis">    0.08    0.08</time>
   <time name="orth">    0.01    0.01</time>
   <time name="total">    0.15    0.15</time>
   <energy>
    <i name="e_fr_energy">    -70.40090399 </i>
    <i name="e_wo_entrp">    -70.40090399 </i>
    <i name="e_0_energy">    -70.40090399 </i>
   </energy>
  </scstep>
  <scstep>
   <time name="diag">    0.05    0.05</time>
   <time name="diis">    0.09    0.09</time>
   <time name="orth">    0.01    0.01</time>
   <time name="total">    0.17    0.17</time>
   <energy>
    <i name="e_fr_energy">    -70.32125465 </i>
    <i name="e_wo_entrp">    -70.32125465 </i>
    <i name="e_0_energy">    -70.32125465 </i>
   </energy>
  </scstep>
  <scstep>
   <time name="diag">    0.05    0.05</time>
   <time name="diis">    0.08    0.08</time>
   <time name="orth">    0.01    0.01</time>
   <time name="total">    0.16    0.16</time>
   <energy>
    <i name="e_fr_energy">    -70.30436835 </i>
    <i name="e_wo_entrp">    -70.30436835 </i>
    <i name="e_0_energy">    -70.30436835 </i>
   </energy>
  </scstep>
  <scstep>
   <time name="diag">    0.05    0.05</time>
   <time name="diis">    0.10    0.10</time>
   <time name="orth">    0.01    0.01</time>
   <time name="total">    0.18    0.18</time>
   <energy>
    <i name="e_fr_energy">    -70.30440721 </i>
    <i name="e_wo_entrp">    -70.30440721 </i>
    <i name="e_0_energy">    -70.30440721 </i>
   </energy>
  </scstep>
  <scstep>
   <time name="diag">    0.05    0.05</time>
   <time name="diis">    0.09    0.09</time>
   <time name="orth">    0.01    0.01</time>
   <time name="total">    0.17    0.17</time>
   <energy>
    <i name="e_fr_energy">    -70.30486331 </i>
    <i name="e_wo_entrp">    -70.30486331 </i>
    <i name="e_0_energy">    -70.30486331 </i>
   </energy>
  </scstep>
  <scstep>
   <time name="diag">    0.05    0.05</time>
   <time name="diis">    0.09    0.09</time>
   <time name="orth">    0.01    0.01</time>
   <time name="total">    0.17    0.17</time>
   <energy>
    <i name="e_fr_energy">    -70.30520674 </i>
    <i name="e_wo_entrp">    -70.30520674 </i>
    <i name="e_0_energy">    -70.30520674 </i>
   </energy>
  </scstep>
  <scstep>
   <time name="diag">    0.05    0.05</time>
   <time name="diis">    0.09    0.09</time>
   <time name="orth">    0.01    0.01</time>
   <time name="total">    0.17    0.17</time>
   <energy>
    <i name="e_fr_energy">    -70.30537754 </i>
    <i name="e_wo_entrp">    -70.30537754 </i>
    <i name="e_0_energy">    -70.30537754 </i>
   </energy>
  </scstep>
  <scstep>
   <time name="diag">    0.05    0.05</time>
   <time name="diis">    0.09    0.09</time>
   <time name="orth">    0.01    0.01</time>
   <time name="total">    0.16    0.16</time>
   <energy>
    <i name="e_fr_energy">    -70.30550041 </i>
    <i name="e_wo_entrp">    -70.30550041 </i>
    <i name="e_0_energy">    -70.30550041 </i>
   </energy>
  </scstep>
  <scstep>
   <time name="diag">    0.05    0.05</time>
   <time name="diis">    0.09    0.09</time>
   <time name="orth">    0.01    0.01</time>
   <time name="total">    0.16    0.17</time>
   <energy>
    <i name="e_fr_energy">    -70.30556451 </i>
    <i name="e_wo_entrp">    -70.30556451 </i>
    <i name="e_0_energy">    -70.30556451 </i>
   </energy>
  </scstep>
  <scstep>
   <time name="diag">    0.05    0.05</time>
   <time name="diis">    0.08    0.08</time>
   <time name="orth">    0.01    0.01</time>
   <time name="total">    0.15    0.15</time>
   <energy>
    <i name="e_fr_energy">    -70.30559154 </i>
    <i name="e_wo_entrp">    -70.30559154 </i>
    <i name="e_0_energy">    -70.30559154 </i>
   </energy>
  </scstep>
  <scstep>
   <time name="diag">    0.05    0.05</time>
   <time name="diis">    0.06    0.06</time>
   <time name="orth">    0.01    0.01</time>
   <time name="total">    0.12    0.12</time>
   <energy>
    <i name="alphaZ">     46.11383635 </i>
    <i name="ewald">  -1786.78638962 </i>
    <i name="hartreedc">  -1393.43050672 </i>
    <i name="XCdc">    184.03493844 </i>
    <i name="pawpsdc">   7837.24892473 </i>
    <i name="pawaedc">  -7888.09755119 </i>
    <i name="eentropy">      0.00000000 </i>
    <i name="bandstr">   -838.47667916 </i>
    <i name="atom">   3769.08782378 </i>
    <i name="e_fr_energy">    -70.30560340 </i>
    <i name="e_wo_entrp">    -70.30560340 </i>
    <i name="e_0_energy">    -70.30560340 </i>
   </energy>
  </scstep>
  <structure>
   <crystal>
    <varray name="basis" >
     <v>       8.70888145       0.00000000       0.00000000 </v>
     <v>       0.00000000       6.57028799       0.00000000 </v>
     <v>       0.00000000       0.00000000       7.47849414 </v>
    </varray>
    <i name="volume">    427.91838145 </i>
    <varray name="rec_basis" >
     <v>       0.11482531       0.00000000       0.00000000 </v>
     <v>       0.00000000       0.15220033       0.00000000 </v>
     <v>       0.00000000       0.00000000       0.13371676 </v>
    </varray>
   </crystal>
   <varray name="positions" >
    <v>       0.00000000       0.95213914       0.00386644 </v>
    <v>       0.50000000       0.04786086       0.50386644 </v>
    <v>       0.19853547       0.01516301       0.86669486 </v>
    <v>       0.30146453       0.98483699       0.36669486 </v>
    <v>       0.69853547       0.98483699       0.36669486 </v>
    <v>       0.80146453       0.01516301       0.86669486 </v>
    <v>       0.00000000       0.10143593       0.23302885 </v>
    <v>       0.50000000       0.89856407       0.73302885 </v>
    <v>       0.00000000       0.65846471       0.06724218 </v>
    <v>       0.50000000       0.34153529       0.56724218 </v>
    <v>       0.00000000       0.39871477       0.85512383 </v>
    <v>       0.50000000       0.60128523       0.35512383 </v>
    <v>       0.24921536       0.18648666       0.10967449 </v>
    <v>       0.25078464       0.81351334       0.60967449 </v>
    <v>       0.74921536       0.81351334       0.60967449 </v>
    <v>       0.75078464       0.18648666       0.10967449 </v>
   </varray>
  </structure>
  <varray name="forces" >
   <v>       0.00000000      -0.22204357      -0.83374386 </v>
   <v>       0.00000000       0.22204357      -0.83374386 </v>
   <v>      -0.77536720       0.23747734      -0.52233969 </v>
   <v>       0.77536720      -0.23747734      -0.52233969 </v>
   <v>      -0.77536720      -0.23747734      -0.52233969 </v>
   <v>       0.77536720       0.23747734      -0.52233969 </v>
   <v>       0.00000000       1.15254205       0.23705267 </v>
   <v>       0.00000000      -1.15254205       0.23705267 </v>
   <v>       0.00000000      -1.45570767       0.11653323 </v>
   <v>       0.00000000       1.45570767       0.11653323 </v>
   <v>       0.00000000      -0.65552306       0.06309318 </v>
   <v>       0.00000000       0.65552306       0.06309318 </v>
   <v>       0.08519361       0.19770410       0.73087208 </v>
   <v>      -0.08519361      -0.19770410       0.73087208 </v>
   <v>       0.08519361      -0.19770410       0.73087208 </v>
   <v>      -0.08519361       0.19770410       0.73087208 </v>
  </varray>
  <varray name="stress" >
   <v>     -12.10528918       0.00000000       0.00000000 </v>
   <v>       0.00000000       1.31967675       0.00000000 </v>
   <v>       0.00000000       0.00000000      17.74717252 </v>
  </varray>
  <energy>
   <i name="e_fr_energy">    -70.30560340 </i>
   <i name="e_wo_entrp">    -70.30560340 </i>
   <i name="e_0_energy">      0.00000000 </i>
  </energy>
  <time name="totalsc">    2.14    2.16</time>
 </calculation>
 <calculation>
  <scstep>
   <time name="dav">    0.17    0.17</time>
   <time name="total">    0.19    0.20</time>
   <energy>
    <i name="alphaZ">     46.13866798 </i>
    <i name="ewald">  -1802.11519885 </i>
    <i name="hartreedc">  -1379.29349860 </i>
    <i name="XCdc">    184.12012219 </i>
    <i name="pawpsdc">   7837.29938806 </i>
    <i name="pawaedc">  -7888.14802671 </i>
    <i name="eentropy">      0.00000000 </i>
    <i name="bandstr">   -837.43885660 </i>
    <i name="atom">   3769.08782378 </i>
[...]
       <r>   -8.7936    1.0000 </r>
       <r>   -4.6099    1.0000 </r>
       <r>   -4.4782    1.0000 </r>
       <r>   -2.0747    1.0000 </r>
       <r>   -2.0330    1.0000 </r>
       <r>   -1.9169    1.0000 </r>
       <r>   -1.8233    1.0000 </r>
       <r>   -1.4052    1.0000 </r>
       <r>   -1.3496    1.0000 </r>
       <r>    0.1753    1.0000 </r>
       <r>    0.3154    1.0000 </r>
       <r>    0.4257    1.0000 </r>
       <r>    0.4787    1.0000 </r>
       <r>    0.8655    1.0000 </r>
       <r>    0.9346    1.0000 </r>
       <r>    1.2992    1.0000 </r>
       <r>    1.4435    1.0000 </r>
       <r>    1.5112    1.0000 </r>
       <r>    1.6317    1.0000 </r>
       <r>    2.0268    1.0000 </r>
       <r>    2.1963    1.0000 </r>
       <r>    2.3905    1.0000 </r>
       <r>    2.5479    1.0000 </r>
       <r>    2.6229    1.0000 </r>
       <r>    2.8991    1.0000 </r>
       <r>    5.7300    0.0000 </r>
       <r>    5.9100    0.0000 </r>
       <r>    6.7987    0.0000 </r>
       <r>    6.8765    0.0000 </r>
       <r>    7.0096    0.0000 </r>
       <r>    7.0421    0.0000 </r>
       <r>    7.2394    0.0000 </r>
       <r>    7.3501    0.0000 </r>
       <r>    8.5242    0.0000 </r>
       <r>    8.8108    0.0000 </r>
      </set>
      <set comment="kpoint 8">
       <r>  -41.1667    1.0000 </r>
       <r>  -41.1666    1.0000 </r>
       <r>  -40.8299    1.0000 </r>
       <r>  -40.8293    1.0000 </r>
       <r>  -40.8273    1.0000 </r>
       <r>  -40.8268    1.0000 </r>
       <r>  -12.1350    1.0000 </r>
       <r>  -12.1235    1.0000 </r>
       <r>   -9.3539    1.0000 </r>
       <r>   -9.3409    1.0000 </r>
       <r>   -9.0425    1.0000 </r>
       <r>   -9.0097    1.0000 </r>
       <r>   -8.8365    1.0000 </r>
       <r>   -8.8079    1.0000 </r>
       <r>   -4.5248    1.0000 </r>
       <r>   -4.4699    1.0000 </r>
       <r>   -2.1404    1.0000 </r>
       <r>   -2.0802    1.0000 </r>
       <r>   -1.7781    1.0000 </r>
       <r>   -1.7106    1.0000 </r>
       <r>   -1.4033    1.0000 </r>
       <r>   -1.3714    1.0000 </r>
       <r>    0.0292    1.0000 </r>
       <r>    0.1230    1.0000 </r>
       <r>    0.2921    1.0000 </r>
       <r>    0.3748    1.0000 </r>
       <r>    0.9211    1.0000 </r>
       <r>    1.0074    1.0000 </r>
       <r>    1.3598    1.0000 </r>
       <r>    1.4315    1.0000 </r>
       <r>    1.5320    1.0000 </r>
       <r>    1.5945    1.0000 </r>
       <r>    1.9839    1.0000 </r>
       <r>    2.0962    1.0000 </r>
       <r>    2.4070    1.0000 </r>
       <r>    2.5664    1.0000 </r>
       <r>    2.7798    1.0000 </r>
       <r>    2.8872    1.0000 </r>
       <r>    5.8913    0.0000 </r>
       <r>    5.9634    0.0000 </r>
       <r>    6.6286    0.0000 </r>
       <r>    6.7160    0.0000 </r>
       <r>    7.1245    0.0000 </r>
       <r>    7.2231    0.0000 </r>
       <r>    7.4997    0.0000 </r>
       <r>    7.6581    0.0000 </r>
       <r>    8.6977    0.0000 </r>
       <r>    9.0709    0.0000 </r>
      </set>
     </set>
    </set>
   </array>
  </eigenvalues>
  <separator name="orbital magnetization" >
   <v name="MAGDIPOLOUT">      0.00000000      0.00000000      0.00000000</v>
  </separator>
  <dos>
   <i name="efermi">      3.15540248 </i>
   <total>
    <array>
     <dimension dim="1">gridpoints</dimension>
     <dimension dim="2">spin</dimension>
     <field>energy</field>
     <field>total</field>
     <field>integrated</field>
     <set>
      <set comment="spin 1">
       <r>   -43.6789     0.0000     0.0000 </r>
       <r>   -43.4947     0.0000     0.0000 </r>
       <r>   -43.3105     0.0000     0.0000 </r>
       <r>   -43.1263     0.0000     0.0000 </r>
       <r>   -42.9421     0.0000     0.0000 </r>
       <r>   -42.7579     0.0000     0.0000 </r>
       <r>   -42.5737     0.0000     0.0000 </r>
       <r>   -42.3895     0.0000     0.0000 </r>
       <r>   -42.2053     0.0000     0.0000 </r>
       <r>   -42.0211     0.0000     0.0000 </r>
       <r>   -41.8369     0.0000     0.0000 </r>
       <r>   -41.6526     0.0000     0.0000 </r>
       <r>   -41.4684     0.0000     0.0000 </r>
       <r>   -41.2842     0.0000     0.0000 </r>
       <r>   -41.1000     0.0000     4.0000 </r>
       <r>   -40.9158     0.0000     4.0000 </r>
       <r>   -40.7316     0.0000    12.0000 </r>
       <r>   -40.5474     0.0000    12.0000 </r>
       <r>   -40.3632     0.0000    12.0000 </r>
       <r>   -40.1790     0.0000    12.0000 </r>
       <r>   -39.9948     0.0000    12.0000 </r>
       <r>   -39.8106     0.0000    12.0000 </r>
       <r>   -39.6264     0.0000    12.0000 </r>
       <r>   -39.4422     0.0000    12.0000 </r>
       <r>   -39.2580     0.0000    12.0000 </r>
       <r>   -39.0738     0.0000    12.0000 </r>
       <r>   -38.8896     0.0000    12.0000 </r>
       <r>   -38.7054     0.0000    12.0000 </r>
       <r>   -38.5211     0.0000    12.0000 </r>
       <r>   -38.3369     0.0000    12.0000 </r>
       <r>   -38.1527     0.0000    12.0000 </r>
       <r>   -37.9685     0.0000    12.0000 </r>
       <r>   -37.7843     0.0000    12.0000 </r>
       <r>   -37.6001     0.0000    12.0000 </r>
       <r>   -37.4159     0.0000    12.0000 </r>
       <r>   -37.2317     0.0000    12.0000 </r>
       <r>   -37.0475     0.0000    12.0000 </r>
       <r>   -36.8633     0.0000    12.0000 </r>
       <r>   -36.6791     0.0000    12.0000 </r>
       <r>   -36.4949     0.0000    12.0000 </r>
       <r>   -36.3107     0.0000    12.0000 </r>
       <r>   -36.1265     0.0000    12.0000 </r>
       <r>   -35.9423     0.0000    12.0000 </r>
       <r>   -35.7581     0.0000    12.0000 </r>
       <r>   -35.5739     0.0000    12.0000 </r>
       <r>   -35.3897     0.0000    12.0000 </r>
       <r>   -35.2054     0.0000    12.0000 </r>
       <r>   -35.0212     0.0000    12.0000 </r>
       <r>   -34.8370     0.0000    12.0000 </r>
       <r>   -34.6528     0.0000    12.0000 </r>
       <r>   -34.4686     0.0000    12.0000 </r>
       <r>   -34.2844     0.0000    12.0000 </r>
       <r>   -34.1002     0.0000    12.0000 </r>
       <r>   -33.9160     0.0000    12.0000 </r>
       <r>   -33.7318     0.0000    12.0000 </r>
       <r>   -33.5476     0.0000    12.0000 </r>
       <r>   -33.3634     0.0000    12.0000 </r>
       <r>   -33.1792     0.0000    12.0000 </r>
       <r>   -32.9950     0.0000    12.0000 </r>
       <r>   -32.8108     0.0000    12.0000 </r>
       <r>   -32.6266     0.0000    12.0000 </r>
       <r>   -32.4424     0.0000    12.0000 </r>
       <r>   -32.2582     0.0000    12.0000 </r>
       <r>   -32.0739     0.0000    12.0000 </r>
       <r>   -31.8897     0.0000    12.0000 </r>
       <r>   -31.7055     0.0000    12.0000 </r>
       <r>   -31.5213     0.0000    12.0000 </r>
       <r>   -31.3371     0.0000    12.0000 </r>
       <r>   -31.1529     0.0000    12.0000 </r>
       <r>   -30.9687     0.0000    12.0000 </r>
       <r>   -30.7845     0.0000    12.0000 </r>
       <r>   -30.6003     0.0000    12.0000 </r>
       <r>   -30.4161     0.0000    12.0000 </r>
       <r>   -30.2319     0.0000    12.0000 </r>
       <r>   -30.0477     0.0000    12.0000 </r>
       <r>   -29.8635     0.0000    12.0000 </r>
       <r>   -29.6793     0.0000    12.0000 </r>
       <r>   -29.4951     0.0000    12.0000 </r>
       <r>   -29.3109     0.0000    12.0000 </r>
       <r>   -29.1267     0.0000    12.0000 </r>
       <r>   -28.9425     0.0000    12.0000 </r>
       <r>   -28.7582     0.0000    12.0000 </r>
       <r>   -28.5740     0.0000    12.0000 </r>
       <r>   -28.3898     0.0000    12.0000 </r>
       <r>   -28.2056     0.0000    12.0000 </r>
       <r>   -28.0214     0.0000    12.0000 </r>
       <r>   -27.8372     0.0000    12.0000 </r>
       <r>   -27.6530     0.0000    12.0000 </r>
       <r>   -27.4688     0.0000    12.0000 </r>
       <r>   -27.2846     0.0000    12.0000 </r>
       <r>   -27.1004     0.0000    12.0000 </r>
       <r>   -26.9162     0.0000    12.0000 </r>
       <r>   -26.7320     0.0000    12.0000 </r>
       <r>   -26.5478     0.0000    12.0000 </r>
       <r>   -26.3636     0.0000    12.0000 </r>
       <r>   -26.1794     0.0000    12.0000 </r>
       <r>   -25.9952     0.0000    12.0000 </r>
       <r>   -25.8110     0.0000    12.0000 </r>
       <r>   -25.6267     0.0000    12.0000 </r>
       <r>   -25.4425     0.0000    12.0000 </r>
       <r>   -25.2583     0.0000    12.0000 </r>
       <r>   -25.0741     0.0000    12.0000 </r>
       <r>   -24.8899     0.0000    12.0000 </r>
       <r>   -24.7057     0.0000    12.0000 </r>
       <r>   -24.5215     0.0000    12.0000 </r>
       <r>   -24.3373     0.0000    12.0000 </r>
       <r>   -24.1531     0.0000    12.0000 </r>
       <r>   -23.9689     0.0000    12.0000 </r>
       <r>   -23.7847     0.0000    12.0000 </r>
       <r>   -23.6005     0.0000    12.0000 </r>
       <r>   -23.4163     0.0000    12.0000 </r>
       <r>   -23.2321     0.0000    12.0000 </r>
       <r>   -23.0479     0.0000    12.0000 </r>
       <r>   -22.8637     0.0000    12.0000 </r>
       <r>   -22.6795     0.0000    12.0000 </r>
       <r>   -22.4952     0.0000    12.0000 </r>
       <r>   -22.3110     0.0000    12.0000 </r>
       <r>   -22.1268     0.0000    12.0000 </r>
       <r>   -21.9426     0.0000    12.0000 </r>
       <r>   -21.7584     0.0000    12.0000 </r>
       <r>   -21.5742     0.0000    12.0000 </r>
       <r>   -21.3900     0.0000    12.0000 </r>
       <r>   -21.2058     0.0000    12.0000 </r>
       <r>   -21.0216     0.0000    12.0000 </r>
       <r>   -20.8374     0.0000    12.0000 </r>
       <r>   -20.6532     0.0000    12.0000 </r>
       <r>   -20.4690     0.0000    12.0000 </r>
       <r>   -20.2848     0.0000    12.0000 </r>
       <r>   -20.1006     0.0000    12.0000 </r>
       <r>   -19.9164     0.0000    12.0000 </r>
       <r>   -19.7322     0.0000    12.0000 </r>
       <r>   -19.5480     0.0000    12.0000 </r>
       <r>   -19.3638     0.0000    12.0000 </r>
       <r>   -19.1795     0.0000    12.0000 </r>
       <r>   -18.9953     0.0000    12.0000 </r>
       <r>   -18.8111     0.0000    12.0000 </r>
       <r>   -18.6269     0.0000    12.0000 </r>
       <r>   -18.4427     0.0000    12.0000 </r>
       <r>   -18.2585     0.0000    12.0000 </r>
       <r>   -18.0743     0.0000    12.0000 </r>
       <r>   -17.8901     0.0000    12.0000 </r>
       <r>   -17.7059     0.0000    12.0000 </r>
       <r>   -17.5217     0.0000    12.0000 </r>
       <r>   -17.3375     0.0000    12.0000 </r>
       <r>   -17.1533     0.0000    12.0000 </r>
       <r>   -16.9691     0.0000    12.0000 </r>
       <r>   -16.7849     0.0000    12.0000 </r>
       <r>   -16.6007     0.0000    12.0000 </r>
       <r>   -16.4165     0.0000    12.0000 </r>
       <r>   -16.2323     0.0000    12.0000 </r>
       <r>   -16.0480     0.0000    12.0000 </r>
       <r>   -15.8638     0.0000    12.0000 </r>
       <r>   -15.6796     0.0000    12.0000 </r>
       <r>   -15.4954     0.0000    12.0000 </r>
       <r>   -15.3112     0.0000    12.0000 </r>
       <r>   -15.1270     0.0000    12.0000 </r>
       <r>   -14.9428     0.0000    12.0000 </r>
       <r>   -14.7586     0.0000    12.0000 </r>
       <r>   -14.5744     0.0000    12.0000 </r>
       <r>   -14.3902     0.0000    12.0000 </r>
       <r>   -14.2060     0.0000    12.0000 </r>
       <r>   -14.0218     0.0000    12.0000 </r>
       <r>   -13.8376     0.0000    12.0000 </r>
       <r>   -13.6534     0.0000    12.0000 </r>
       <r>   -13.4692     0.0000    12.0000 </r>
       <r>   -13.2850     0.0000    12.0000 </r>
       <r>   -13.1008     0.0000    12.0000 </r>
       <r>   -12.9165     0.0000    12.0000 </r>
       <r>   -12.7323     0.0000    12.0000 </r>
       <r>   -12.5481     0.0000    12.0000 </r>
       <r>   -12.3639     0.0000    12.0000 </r>
       <r>   -12.1797    21.1651    13.2088 </r>
       <r>   -11.9955     0.0000    16.0000 </r>
       <r>   -11.8113     0.0000    16.0000 </r>
       <r>   -11.6271     0.0000    16.0000 </r>
       <r>   -11.4429     0.0000    16.0000 </r>
       <r>   -11.2587     0.0000    16.0000 </r>
       <r>   -11.0745     0.0000    16.0000 </r>
       <r>   -10.8903     0.0000    16.0000 </r>
       <r>   -10.7061     0.0000    16.0000 </r>
       <r>   -10.5219     0.0000    16.0000 </r>
       <r>   -10.3377     0.0000    16.0000 </r>
       <r>   -10.1535     0.0000    16.0000 </r>
       <r>    -9.9693     0.0000    16.0000 </r>
       <r>    -9.7851     0.0000    16.0000 </r>
       <r>    -9.6008     0.0000    16.0000 </r>
       <r>    -9.4166     0.0000    16.0000 </r>
       <r>    -9.2324     6.9299    19.2955 </r>
       <r>    -9.0482    18.3685    21.2146 </r>
       <r>    -8.8640     4.6480    24.0910 </r>
       <r>    -8.6798    21.9660    26.9931 </r>
       <r>    -8.4956     0.0000    28.0000 </r>
       <r>    -8.3114     0.0000    28.0000 </r>
       <r>    -8.1272     0.0000    28.0000 </r>
       <r>    -7.9430     0.0000    28.0000 </r>
       <r>    -7.7588     0.0000    28.0000 </r>
       <r>    -7.5746     0.0000    28.0000 </r>
       <r>    -7.3904     0.0000    28.0000 </r>
       <r>    -7.2062     0.0000    28.0000 </r>
       <r>    -7.0220     0.0000    28.0000 </r>
       <r>    -6.8378     0.0000    28.0000 </r>
       <r>    -6.6536     0.0000    28.0000 </r>
       <r>    -6.4693     0.0000    28.0000 </r>
       <r>    -6.2851     0.0000    28.0000 </r>
       <r>    -6.1009     0.0000    28.0000 </r>
       <r>    -5.9167     0.0000    28.0000 </r>
       <r>    -5.7325     0.0000    28.0000 </r>
       <r>    -5.5483     0.0000    28.0000 </r>
       <r>    -5.3641     0.0000    28.0000 </r>
       <r>    -5.1799     0.0000    28.0000 </r>
       <r>    -4.9957     1.6145    28.1745 </r>
       <r>    -4.8115     4.6375    28.7588 </r>
       <r>    -4.6273     3.2209    29.6932 </r>
       <r>    -4.4431     2.4103    31.9458 </r>
       <r>    -4.2589     0.0000    32.0000 </r>
       <r>    -4.0747     0.0000    32.0000 </r>
       <r>    -3.8905     0.0000    32.0000 </r>
       <r>    -3.7063     0.0000    32.0000 </r>
       <r>    -3.5221     0.0000    32.0000 </r>
       <r>    -3.3379     0.0000    32.0000 </r>
       <r>    -3.1536     0.0000    32.0000 </r>
       <r>    -2.9694     0.0000    32.0000 </r>
       <r>    -2.7852     0.0000    32.0000 </r>
       <r>    -2.6010     0.0000    32.0000 </r>
       <r>    -2.4168     0.0000    32.0000 </r>
       <r>    -2.2326     6.0850    32.3418 </r>
       <r>    -2.0484    17.7981    34.5848 </r>
       <r>    -1.8642    15.8099    38.2589 </r>
       <r>    -1.6800     5.9917    40.5033 </r>
       <r>    -1.4958     8.6696    42.4151 </r>
       <r>    -1.3116     0.0000    44.0000 </r>
       <r>    -1.1274     0.0000    44.0000 </r>
       <r>    -0.9432     0.0000    44.0000 </r>
       <r>    -0.7590     0.0000    44.0000 </r>
       <r>    -0.5748     0.0000    44.0000 </r>
       <r>    -0.3906     0.0000    44.0000 </r>
       <r>    -0.2064     0.0000    44.0000 </r>
       <r>    -0.0221     0.0000    44.0000 </r>
       <r>     0.1621    15.0421    45.3176 </r>
       <r>     0.3463    10.4226    47.8474 </r>
       <r>     0.5305     8.8212    50.7353 </r>
       <r>     0.7147     0.0000    52.0000 </r>
       <r>     0.8989    12.4120    53.7516 </r>
       <r>     1.0831     5.7625    55.6474 </r>
       <r>     1.2673     6.6971    56.4153 </r>
       <r>     1.4515    16.3909    59.1326 </r>
       <r>     1.6357    11.5221    61.2183 </r>
       <r>     1.8199     5.9047    63.3046 </r>
       <r>     2.0041    13.3385    65.2609 </r>
       <r>     2.1883     2.8659    67.9487 </r>
       <r>     2.3725     8.3238    69.1124 </r>
       <r>     2.5567    15.6342    71.2061 </r>
       <r>     2.7409    19.0737    73.6409 </r>
       <r>     2.9251     4.0455    75.6462 </r>
       <r>     3.1094     0.0000    76.0000 </r>
       <r>     3.2936     0.0000    76.0000 </r>
       <r>     3.4778     0.0000    76.0000 </r>
       <r>     3.6620     0.0000    76.0000 </r>
       <r>     3.8462     0.0000    76.0000 </r>
       <r>     4.0304     0.0000    76.0000 </r>
       <r>     4.2146     0.0000    76.0000 </r>
       <r>     4.3988     0.0000    76.0000 </r>
       <r>     4.5830     0.0000    76.0000 </r>
       <r>     4.7672     0.0000    76.0000 </r>
       <r>     4.9514     0.0000    76.0000 </r>
       <r>     5.1356     0.0000    76.0000 </r>
       <r>     5.3198     0.0000    76.0000 </r>
       <r>     5.5040     0.0000    76.0000 </r>
       <r>     5.6882     0.0000    76.0000 </r>
       <r>     5.8724     4.4454    76.6429 </r>
       <r>     6.0566     6.2286    78.0286 </r>
       <r>     6.2408     7.1980    79.3699 </r>
       <r>     6.4251     1.1082    79.8395 </r>
       <r>     6.6093     3.2733    80.1987 </r>
       <r>     6.7935    15.5648    82.5252 </r>
       <r>     6.9777     1.1838    83.9544 </r>
       <r>     7.1619    11.4560    85.8456 </r>
       <r>     7.3461     6.7847    87.9596 </r>
       <r>     7.5303     8.3339    90.5356 </r>
       <r>     7.7145     0.0000    92.0000 </r>
       <r>     7.8987     0.0000    92.0000 </r>
       <r>     8.0829     0.0000    92.0000 </r>
       <r>     8.2671     0.0000    92.0000 </r>
       <r>     8.4513     3.7253    92.5300 </r>
       <r>     8.6355     6.3507    93.5872 </r>
       <r>     8.8197     3.0566    95.0321 </r>
       <r>     9.0039     2.5887    95.8408 </r>
       <r>     9.1881     0.0000    96.0000 </r>
       <r>     9.3723     0.0000    96.0000 </r>
       <r>     9.5566     0.0000    96.0000 </r>
       <r>     9.7408     0.0000    96.0000 </r>
       <r>     9.9250     0.0000    96.0000 </r>
       <r>    10.1092     0.0000    96.0000 </r>
       <r>    10.2934     0.0000    96.0000 </r>
       <r>    10.4776     0.0000    96.0000 </r>
       <r>    10.6618     0.0000    96.0000 </r>
       <r>    10.8460     0.0000    96.0000 </r>
       <r>    11.0302     0.0000    96.0000 </r>
       <r>    11.2144     0.0000    96.0000 </r>
       <r>    11.3986     0.0000    96.0000 </r>
       <r>    11.5828     0.0000    96.0000 </r>
      </set>
     </set>
    </array>
   </total>
  </dos>
 </calculation>
 <structure name="finalpos" >
  <crystal>
   <varray name="basis" >
    <v>       7.65943609       0.00000000       0.00000000 </v>
    <v>       0.00000000       5.84220325       0.00000000 </v>
    <v>       0.00000000       0.00000000       6.15430952 </v>
   </varray>
   <i name="volume">    275.39293420 </i>
   <varray name="rec_basis" >
    <v>       0.13055791       0.00000000       0.00000000 </v>
    <v>       0.00000000       0.17116830       0.00000000 </v>
    <v>       0.00000000       0.00000000       0.16248777 </v>
   </varray>
  </crystal>
  <varray name="positions" >
   <v>       0.00000000       0.20507188       0.02666051 </v>
   <v>       0.50000000      -0.20507188       0.52666051 </v>
   <v>       0.21875388       0.34528941       0.89245600 </v>
   <v>       0.28124612       0.65471059       0.39245600 </v>
   <v>       0.71875388       0.65471059       0.39245600 </v>
   <v>       0.78124612       0.34528941       0.89245600 </v>
   <v>       0.00000000       0.20137146       0.35087220 </v>
   <v>       0.50000000       0.79862854       0.85087220 </v>
   <v>       0.00000000       0.85718991      -0.06391553 </v>
   <v>       0.50000000       0.14281009       0.43608447 </v>
   <v>       0.00000000       0.53588321       0.57698156 </v>
   <v>       0.50000000       0.46411679       0.07698156 </v>
   <v>       0.26856684       0.04031255       0.21824462 </v>
   <v>       0.23143316       0.95968745       0.71824462 </v>
   <v>       0.76856684       0.95968745       0.71824462 </v>
   <v>       0.73143316       0.04031255       0.21824462 </v>
  </varray>
 </structure>
</modeling>
