unknown system                          
           1
     7.516535   -0.000102    0.000004
     0.000014    6.385610   -0.000000
     0.000003   -0.000000    6.013273
   P    S    Li
   2   8   6
Direct configuration=     1
   0.00000405  0.68187578  0.40578784
   0.49999595  0.31812422  0.90578784
   0.21725738  0.82756695  0.29203792
   0.28274262  0.17243305  0.79203792
   0.71725738  0.17243305  0.79203792
   0.78274262  0.82756695  0.29203792
   0.00000390  0.68767466  0.73832854
   0.49999610  0.31232534  0.23832854
   0.00000463  0.38470151  0.30074668
   0.49999537  0.61529849  0.80074668
   0.99999648  0.34856713  0.89330313
   0.50000352  0.65143287  0.39330313
   0.24238658  0.18458086  0.40641080
   0.25761342  0.81541914  0.90641080
   0.74238658  0.81541914  0.90641080
   0.75761342  0.18458086  0.40641080
unknown system                          
           1
     7.598570   -0.000053    0.000004
     0.000057    6.442823   -0.000000
     0.000003   -0.000000    6.073036
   P    S    Li
   2   8   6
Direct configuration=     2
  -0.00000136  0.68105232  0.40561950
   0.50000136  0.31894768  0.90561950
   0.22152714  0.83061743  0.29109550
   0.27847286  0.16938257  0.79109550
   0.72152072  0.16938660  0.79109831
   0.77847928  0.83061340  0.29109831
   0.00000244  0.68893877  0.74468013
   0.49999756  0.31106123  0.24468013
   0.00000308  0.37987023  0.29694219
   0.49999692  0.62012977  0.79694219
   0.99999689  0.34828429  0.89387286
   0.50000311  0.65171571  0.39387286
   0.24286802  0.18416136  0.40587785
   0.25713198  0.81583864  0.90587785
   0.74286835  0.81583800  0.90587726
   0.75713165  0.18416200  0.40587726
unknown system                          
           1
     7.565890   -0.000072    0.000004
     0.000039    6.420031   -0.000000
     0.000003   -0.000000    6.049228
   P    S    Li
   2   8   6
Direct configuration=     3
   0.00000077  0.68137745  0.40568590
   0.49999923  0.31862255  0.90568590
   0.21984457  0.82941301  0.29146724
   0.28015543  0.17058699  0.79146724
   0.71984066  0.17058945  0.79146894
   0.78015934  0.82941055  0.29146894
   0.00000302  0.68843966  0.74217475
   0.49999698  0.31156034  0.24217475
   0.00000368  0.38177777  0.29844287
   0.49999632  0.61822223  0.79844287
   0.99999673  0.34839597  0.89364813
   0.50000327  0.65160403  0.39364813
   0.24267830  0.18432699  0.40608808
   0.25732170  0.81567301  0.90608808
   0.74267850  0.81567262  0.90608772
   0.75732150  0.18432738  0.40608772
unknown system                          
           1
     7.551243   -0.000073    0.000004
     0.000039    6.402514   -0.000000
     0.000003   -0.000000    6.033973
   P    S    Li
   2   8   6
Direct configuration=     4
   0.00000243  0.68127954  0.40564011
   0.49999757  0.31872046  0.90564011
   0.22046170  0.82992234  0.29216163
   0.27953830  0.17007766  0.79216163
   0.72045855  0.17007959  0.79216238
   0.77954145  0.82992041  0.29216238
   0.00000208  0.68924998  0.74307400
   0.49999792  0.31075002  0.24307400
   0.00000264  0.38123947  0.29654627
   0.49999736  0.61876053  0.79654627
   0.99999704  0.34822132  0.89406280
   0.50000296  0.65177868  0.39406280
   0.24303412  0.18401898  0.40570862
   0.25696588  0.81598102  0.90570862
   0.74303438  0.81598001  0.90570780
   0.75696562  0.18401999  0.40570780
unknown system                          
           1
     7.518186   -0.000073    0.000004
     0.000038    6.362980   -0.000000
     0.000003   -0.000000    5.999543
   P    S    Li
   2   8   6
Direct configuration=     5
   0.00000619  0.68105797  0.40553651
   0.49999381  0.31894203  0.90553651
   0.22185725  0.83107503  0.29373280
   0.27814275  0.16892497  0.79373280
   0.72185581  0.16892570  0.79373141
   0.77814419  0.83107430  0.29373141
  -0.00000004  0.69108386  0.74510874
   0.50000004  0.30891614  0.24510874
   0.00000030  0.38002123  0.29225488
   0.49999970  0.61997877  0.79225488
   0.99999773  0.34782608  0.89500108
   0.50000227  0.65217392  0.39500108
   0.24383877  0.18332191  0.40485003
   0.25616123  0.81667809  0.90485003
   0.74383915  0.81667569  0.90484817
   0.75616085  0.18332431  0.40484817
unknown system                          
           1
     7.527609   -0.000073    0.000004
     0.000038    6.374249   -0.000000
     0.000003   -0.000000    6.009356
   P    S    Li
   2   8   6
Direct configuration=     6
   0.00000511  0.68112152  0.40556621
   0.49999489  0.31887848  0.90556621
   0.22145772  0.83074443  0.29328239
   0.27854228  0.16925557  0.79328239
   0.72145579  0.16925665  0.79328161
   0.77854421  0.83074335  0.29328161
   0.00000057  0.69055789  0.74452544
   0.49999943  0.30944211  0.24452544
   0.00000097  0.38037063  0.29348510
   0.49999903  0.61962937  0.79348510
   0.99999753  0.34793944  0.89473210
   0.50000247  0.65206056  0.39473210
   0.24360841  0.18352183  0.40509617
   0.25639159  0.81647817  0.90509617
   0.74360875  0.81647616  0.90509460
   0.75639125  0.18352384  0.40509460
unknown system                          
           1
     7.533321   -0.000042    0.000004
     0.000064    6.373793   -0.000000
     0.000003   -0.000000    6.009258
   P    S    Li
   2   8   6
Direct configuration=     7
  -0.00000054  0.68119218  0.40570298
   0.50000054  0.31880782  0.90570298
   0.22167537  0.83061839  0.29351459
   0.27832463  0.16938161  0.79351459
   0.72166833  0.16938508  0.79351596
   0.77833167  0.83061492  0.29351596
   0.00000103  0.69043605  0.74440069
   0.49999897  0.30956395  0.24440069
   0.00000141  0.38065400  0.29286313
   0.49999859  0.61934600  0.79286313
   0.99999749  0.34794327  0.89464469
   0.50000251  0.65205673  0.39464469
   0.24350807  0.18346894  0.40521138
   0.25649193  0.81653106  0.90521138
   0.74350845  0.81652996  0.90521019
   0.75649155  0.18347004  0.40521019
unknown system                          
           1
     7.538277   -0.000015    0.000004
     0.000087    6.373397   -0.000000
     0.000003   -0.000000    6.009173
   P    S    Li
   2   8   6
Direct configuration=     8
  -0.00000545  0.68125350  0.40582167
   0.50000545  0.31874650  0.90582167
   0.22186409  0.83050901  0.29371609
   0.27813591  0.16949099  0.79371609
   0.72185263  0.16949655  0.79371932
   0.77814737  0.83050345  0.29371932
   0.00000144  0.69033032  0.74429244
   0.49999856  0.30966968  0.24429244
   0.00000179  0.38089992  0.29232340
   0.49999821  0.61910008  0.79232340
   0.99999745  0.34794659  0.89456884
   0.50000255  0.65205341  0.39456884
   0.24342106  0.18342304  0.40531137
   0.25657894  0.81657696  0.90531137
   0.74342147  0.81657664  0.90531050
   0.75657853  0.18342336  0.40531050
unknown system                          
           1
     7.537552   -0.000048    0.000004
     0.000060    6.372719   -0.000000
     0.000003   -0.000000    6.010006
   P    S    Li
   2   8   6
Direct configuration=     9
  -0.00000135  0.68137403  0.40568418
   0.50000135  0.31862597  0.90568418
   0.22188476  0.83036603  0.29394443
   0.27811524  0.16963397  0.79394443
   0.72187743  0.16963602  0.79394565
   0.77812257  0.83036398  0.29394565
   0.00000151  0.69022725  0.74432836
   0.49999849  0.30977275  0.24432836
   0.00000172  0.38112867  0.29189939
   0.49999828  0.61887133  0.79189939
   0.99999769  0.34796777  0.89444519
   0.50000231  0.65203223  0.39444519
   0.24330854  0.18342294  0.40540862
   0.25669146  0.81657706  0.90540862
   0.74330871  0.81657691  0.90540779
   0.75669129  0.18342309  0.40540779
unknown system                          
           1
     7.537008   -0.000072    0.000004
     0.000039    6.372211   -0.000000
     0.000003   -0.000000    6.010632
   P    S    Li
   2   8   6
Direct configuration=    10
   0.00000173  0.68146447  0.40558103
   0.49999827  0.31853553  0.90558103
   0.22190027  0.83025873  0.29411575
   0.27809973  0.16974127  0.79411575
   0.72189604  0.16974069  0.79411545
   0.77810396  0.83025931  0.29411545
   0.00000156  0.69014990  0.74435532
   0.49999844  0.30985010  0.24435532
   0.00000166  0.38130034  0.29158128
   0.49999834  0.61869966  0.79158128
   0.99999787  0.34798367  0.89435242
   0.50000213  0.65201633  0.39435242
   0.24322410  0.18342286  0.40548159
   0.25677590  0.81657714  0.90548159
   0.74322410  0.81657711  0.90548078
   0.75677590  0.18342289  0.40548078
unknown system                          
           1
     7.533847   -0.000078    0.000004
     0.000034    6.373618   -0.000000
     0.000003   -0.000000    6.010677
   P    S    Li
   2   8   6
Direct configuration=    11
   0.00000241  0.68139846  0.40559315
   0.49999759  0.31860154  0.90559315
   0.22188321  0.83029506  0.29415736
   0.27811679  0.16970494  0.79415736
   0.72187991  0.16970386  0.79415653
   0.77812009  0.83029614  0.29415653
   0.00000128  0.69012377  0.74436926
   0.49999872  0.30987623  0.24436926
   0.00000132  0.38130987  0.29151079
   0.49999868  0.61869013  0.79151079
   0.99999786  0.34802416  0.89426293
   0.50000214  0.65197584  0.39426293
   0.24316661  0.18347866  0.40550725
   0.25683339  0.81652134  0.90550725
   0.74316664  0.81652110  0.90550635
   0.75683336  0.18347890  0.40550635
unknown system                          
           1
     7.524365   -0.000096    0.000004
     0.000019    6.377838   -0.000000
     0.000003   -0.000000    6.010812
   P    S    Li
   2   8   6
Direct configuration=    12
   0.00000444  0.68120046  0.40562950
   0.49999556  0.31879954  0.90562950
   0.22183198  0.83040403  0.29428219
   0.27816802  0.16959597  0.79428219
   0.72183151  0.16959341  0.79427977
   0.77816849  0.83040659  0.29427977
   0.00000044  0.69004541  0.74441109
   0.49999956  0.30995459  0.24441109
   0.00000031  0.38133847  0.29129931
   0.49999969  0.61866153  0.79129931
   0.99999784  0.34814563  0.89399447
   0.50000216  0.65185437  0.39399447
   0.24299406  0.18364604  0.40558424
   0.25700594  0.81635396  0.90558424
   0.74299421  0.81635309  0.90558306
   0.75700579  0.18364691  0.40558306
unknown system                          
           1
     7.523290   -0.000079    0.000004
     0.000033    6.379562   -0.000000
     0.000003   -0.000000    6.010847
   P    S    Li
   2   8   6
Direct configuration=    13
   0.00000210  0.68110065  0.40569264
   0.49999790  0.31889935  0.90569264
   0.22189314  0.83048911  0.29428563
   0.27810686  0.16951089  0.79428563
   0.72189048  0.16950986  0.79428403
   0.77810952  0.83049014  0.29428403
   0.00000025  0.68998650  0.74440837
   0.49999975  0.31001350  0.24440837
   0.00000018  0.38140120  0.29124726
   0.49999982  0.61859880  0.79124726
   0.99999780  0.34819788  0.89387571
   0.50000220  0.65180212  0.39387571
   0.24292877  0.18369232  0.40563560
   0.25707123  0.81630768  0.90563560
   0.74292923  0.81630689  0.90563439
   0.75707077  0.18369311  0.40563439
unknown system                          
           1
     7.521955   -0.000058    0.000004
     0.000051    6.381705   -0.000000
     0.000003   -0.000000    6.010890
   P    S    Li
   2   8   6
Direct configuration=    14
  -0.00000080  0.68097672  0.40577106
   0.50000080  0.31902328  0.90577106
   0.22196913  0.83059476  0.29428991
   0.27803087  0.16940524  0.79428991
   0.72196374  0.16940612  0.79428933
   0.77803626  0.83059388  0.29428933
   0.00000002  0.68991335  0.74440500
   0.49999998  0.31008665  0.24440500
   0.00000001  0.38147910  0.29118260
   0.49999999  0.61852090  0.79118260
   0.99999776  0.34826276  0.89372819
   0.50000224  0.65173724  0.39372819
   0.24284766  0.18374980  0.40569939
   0.25715234  0.81625020  0.90569939
   0.74284849  0.81624952  0.90569814
   0.75715151  0.18375048  0.40569814
unknown system                          
           1
     7.520920   -0.000053    0.000004
     0.000056    6.382901   -0.000000
     0.000003   -0.000000    6.010817
   P    S    Li
   2   8   6
Direct configuration=    15
  -0.00000009  0.68103557  0.40574137
   0.50000009  0.31896443  0.90574137
   0.22199735  0.83063046  0.29431249
   0.27800265  0.16936954  0.79431249
   0.72199252  0.16937000  0.79431152
   0.77800748  0.83063000  0.29431152
  -0.00000000  0.68983529  0.74442597
   0.50000000  0.31016471  0.24442597
   0.00000004  0.38156951  0.29113505
   0.49999996  0.61843049  0.79113505
   0.99999792  0.34830285  0.89361187
   0.50000208  0.65169715  0.39361187
   0.24279573  0.18376529  0.40576331
   0.25720427  0.81623471  0.90576331
   0.74279665  0.81623413  0.90576204
   0.75720335  0.18376587  0.40576204
unknown system                          
           1
     7.517818   -0.000038    0.000004
     0.000068    6.386491   -0.000000
     0.000003   -0.000000    6.010599
   P    S    Li
   2   8   6
Direct configuration=    16
   0.00000203  0.68121207  0.40565230
   0.49999797  0.31878793  0.90565230
   0.22208202  0.83073755  0.29438024
   0.27791798  0.16926245  0.79438024
   0.72207886  0.16926169  0.79437808
   0.77792114  0.83073831  0.29437808
  -0.00000007  0.68960113  0.74448890
   0.50000007  0.31039887  0.24448890
   0.00000013  0.38184071  0.29099238
   0.49999987  0.61815929  0.79099238
   0.99999841  0.34842309  0.89326290
   0.50000159  0.65157691  0.39326290
   0.24263990  0.18381176  0.40595508
   0.25736010  0.81618824  0.90595508
   0.74264109  0.81618798  0.90595374
   0.75735891  0.18381202  0.40595374
unknown system                          
           1
     7.517161   -0.000045    0.000004
     0.000062    6.385521   -0.000000
     0.000003   -0.000000    6.009553
   P    S    Li
   2   8   6
Direct configuration=    17
   0.00000139  0.68123417  0.40569647
   0.49999861  0.31876583  0.90569647
   0.22208304  0.83077503  0.29442821
   0.27791696  0.16922497  0.79442821
   0.72207961  0.16922419  0.79442606
   0.77792039  0.83077581  0.29442606
   0.00000030  0.68960330  0.74442866
   0.49999970  0.31039670  0.24442866
   0.00000012  0.38201191  0.29093143
   0.49999988  0.61798809  0.79093143
   0.99999832  0.34842934  0.89321718
   0.50000168  0.65157066  0.39321718
   0.24263497  0.18380515  0.40596846
   0.25736503  0.81619485  0.90596846
   0.74263573  0.81619460  0.90596715
   0.75736427  0.18380540  0.40596715
unknown system                          
           1
     7.516133   -0.000056    0.000004
     0.000053    6.384004   -0.000000
     0.000003   -0.000000    6.007916
   P    S    Li
   2   8   6
Direct configuration=    18
   0.00000039  0.68126873  0.40576552
   0.49999961  0.31873127  0.90576552
   0.22208464  0.83083363  0.29450321
   0.27791536  0.16916637  0.79450321
   0.72208078  0.16916557  0.79450109
   0.77791922  0.83083443  0.29450109
   0.00000087  0.68960671  0.74433447
   0.49999913  0.31039329  0.24433447
   0.00000012  0.38227956  0.29083615
   0.49999988  0.61772044  0.79083615
   0.99999818  0.34843911  0.89314569
   0.50000182  0.65156089  0.39314569
   0.24262726  0.18379482  0.40598938
   0.25737274  0.81620518  0.90598938
   0.74262736  0.81620495  0.90598812
   0.75737264  0.18379505  0.40598812
