unknown system                          
           1
     7.480461    0.000000    0.000000
     0.000000    6.410527    0.000000
     0.000000    0.000000    6.012211
   P    S    Li
   2   8   6
Direct configuration=     1
   0.00000000  0.31373713  0.28194577
   0.50000000  0.68626287  0.78194577
   0.22305181  0.16347448  0.17240902
   0.27694819  0.83652552  0.67240902
   0.72305181  0.83652552  0.67240902
   0.77694819  0.16347448  0.17240902
   0.00000000  0.61062541  0.16388350
   0.50000000  0.38937459  0.66388350
   0.00000000  0.30925704  0.62080501
   0.50000000  0.69074296  0.12080501
   0.00000000  0.65197938  0.76765444
   0.50000000  0.34802062  0.26765444
   0.25758745  0.18584183  0.78362580
   0.24241255  0.81415817  0.28362580
   0.75758745  0.81415817  0.28362580
   0.74241255  0.18584183  0.78362580
unknown system                          
           1
     7.480438    0.000000    0.000000
     0.000000    6.411664    0.000000
     0.000000    0.000000    6.011749
   P    S    Li
   2   8   6
Direct configuration=     2
   0.00000000  0.31394627  0.28201167
   0.50000000  0.68605373  0.78201167
   0.22308420  0.16383152  0.17220828
   0.27691580  0.83616848  0.67220828
   0.72308420  0.83616848  0.67220828
   0.77691580  0.16383152  0.17220828
   0.00000000  0.61098200  0.16424501
   0.50000000  0.38901800  0.66424501
   0.00000000  0.30968795  0.62064814
   0.50000000  0.69031205  0.12064814
   0.00000000  0.65177335  0.76748787
   0.50000000  0.34822665  0.26748787
   0.25799639  0.18623543  0.78377456
   0.24200361  0.81376457  0.28377456
   0.75799639  0.81376457  0.28377456
   0.74200361  0.18623543  0.78377456
unknown system                          
           1
     7.480393    0.000000    0.000000
     0.000000    6.413914    0.000000
     0.000000    0.000000    6.010835
   P    S    Li
   2   8   6
Direct configuration=     3
   0.00000000  0.31436009  0.28214208
   0.50000000  0.68563991  0.78214208
   0.22314830  0.16453800  0.17181096
   0.27685170  0.83546200  0.67181096
   0.72314830  0.83546200  0.67181096
   0.77685170  0.16453800  0.17181096
   0.00000000  0.61168760  0.16496052
   0.50000000  0.38831240  0.66496052
   0.00000000  0.31054060  0.62033767
   0.50000000  0.68945940  0.12033767
   0.00000000  0.65136569  0.76715820
   0.50000000  0.34863431  0.26715820
   0.25880569  0.18701424  0.78406899
   0.24119431  0.81298576  0.28406899
   0.75880569  0.81298576  0.28406899
   0.74119431  0.18701424  0.78406899
unknown system                          
           1
     7.477872    0.000000    0.000000
     0.000000    6.410465    0.000000
     0.000000    0.000000    6.015791
   P    S    Li
   2   8   6
Direct configuration=     4
   0.00000000  0.31493094  0.28150658
   0.50000000  0.68506906  0.78150658
   0.22302216  0.16486718  0.17185608
   0.27697784  0.83513282  0.67185608
   0.72302216  0.83513282  0.67185608
   0.77697784  0.16486718  0.17185608
   0.00000000  0.61189420  0.16499752
   0.50000000  0.38810580  0.66499752
   0.00000000  0.31069960  0.62085850
   0.50000000  0.68930040  0.12085850
   0.00000000  0.65119404  0.76711181
   0.50000000  0.34880596  0.26711181
   0.25915682  0.18733376  0.78408590
   0.24084318  0.81266624  0.28408590
   0.75915682  0.81266624  0.28408590
   0.74084318  0.18733376  0.78408590
unknown system                          
           1
     7.479242    0.000000    0.000000
     0.000000    6.412339    0.000000
     0.000000    0.000000    6.013099
   P    S    Li
   2   8   6
Direct configuration=     5
   0.00000000  0.31462067  0.28185152
   0.50000000  0.68537933  0.78185152
   0.22309070  0.16468826  0.17183159
   0.27690930  0.83531174  0.67183159
   0.72309070  0.83531174  0.67183159
   0.77690930  0.16468826  0.17183159
   0.00000000  0.61178191  0.16497743
   0.50000000  0.38821809  0.66497743
   0.00000000  0.31061318  0.62057580
   0.50000000  0.68938682  0.12057580
   0.00000000  0.65128733  0.76713699
   0.50000000  0.34871267  0.26713699
   0.25896601  0.18716010  0.78407672
   0.24103399  0.81283990  0.28407672
   0.75896601  0.81283990  0.28407672
   0.74103399  0.18716010  0.78407672
unknown system                          
           1
     7.479726    0.000000    0.000000
     0.000000    6.411314    0.000000
     0.000000    0.000000    6.012655
   P    S    Li
   2   8   6
Direct configuration=     6
   0.00000000  0.31489134  0.28190773
   0.50000000  0.68510866  0.78190773
   0.22304339  0.16472313  0.17194753
   0.27695661  0.83527687  0.67194753
   0.72304339  0.83527687  0.67194753
   0.77695661  0.16472313  0.17194753
   0.00000000  0.61196552  0.16464884
   0.50000000  0.38803448  0.66464884
   0.00000000  0.31048401  0.62061349
   0.50000000  0.68951599  0.12061349
   0.00000000  0.65125930  0.76722808
   0.50000000  0.34874070  0.26722808
   0.25898633  0.18716738  0.78403259
   0.24101367  0.81283262  0.28403259
   0.75898633  0.81283262  0.28403259
   0.74101367  0.18716738  0.78403259
unknown system                          
           1
     7.480262    0.000000    0.000000
     0.000000    6.410182    0.000000
     0.000000    0.000000    6.012165
   P    S    Li
   2   8   6
Direct configuration=     7
   0.00000000  0.31519029  0.28196980
   0.50000000  0.68480971  0.78196980
   0.22299115  0.16476164  0.17207556
   0.27700885  0.83523836  0.67207556
   0.72299115  0.83523836  0.67207556
   0.77700885  0.16476164  0.17207556
   0.00000000  0.61216832  0.16428594
   0.50000000  0.38783168  0.66428594
   0.00000000  0.31034135  0.62065511
   0.50000000  0.68965865  0.12065511
   0.00000000  0.65122834  0.76732867
   0.50000000  0.34877166  0.26732867
   0.25900876  0.18717542  0.78398386
   0.24099124  0.81282458  0.28398386
   0.75900876  0.81282458  0.28398386
   0.74099124  0.18717542  0.78398386
unknown system                          
           1
     7.481581    0.000000    0.000000
     0.000000    6.407710    0.000000
     0.000000    0.000000    6.011713
   P    S    Li
   2   8   6
Direct configuration=     8
   0.00000000  0.31511019  0.28192940
   0.50000000  0.68488981  0.78192940
   0.22293921  0.16491097  0.17219601
   0.27706079  0.83508903  0.67219601
   0.72293921  0.83508903  0.67219601
   0.77706079  0.16491097  0.17219601
   0.00000000  0.61240338  0.16403419
   0.50000000  0.38759662  0.66403419
   0.00000000  0.31032763  0.62072292
   0.50000000  0.68967237  0.12072292
   0.00000000  0.65122886  0.76731353
   0.50000000  0.34877114  0.26731353
   0.25900124  0.18709979  0.78398316
   0.24099876  0.81290021  0.28398316
   0.75900124  0.81290021  0.28398316
   0.74099876  0.18709979  0.78398316
unknown system                          
           1
     7.481220    0.000000    0.000000
     0.000000    6.408386    0.000000
     0.000000    0.000000    6.011837
   P    S    Li
   2   8   6
Direct configuration=     9
   0.00000000  0.31513211  0.28194045
   0.50000000  0.68486789  0.78194045
   0.22295342  0.16487010  0.17216305
   0.27704658  0.83512990  0.67216305
   0.72295342  0.83512990  0.67216305
   0.77704658  0.16487010  0.17216305
   0.00000000  0.61233904  0.16410308
   0.50000000  0.38766096  0.66410308
   0.00000000  0.31033139  0.62070437
   0.50000000  0.68966861  0.12070437
   0.00000000  0.65122872  0.76731767
   0.50000000  0.34877128  0.26731767
   0.25900330  0.18712049  0.78398335
   0.24099670  0.81287951  0.28398335
   0.75900330  0.81287951  0.28398335
   0.74099670  0.18712049  0.78398335
