unknown system                          
           1
     6.933613    0.000000    0.000000
     0.000000    6.933613    0.000000
     0.000000    0.000000    6.933613
   P    S    Li
   2   8   6
Direct configuration=     1
   0.00000000  0.94500000  0.01000000
   0.50000000  0.05500000  0.51000000
   0.23551848  0.01273658  0.85786114
   0.26448152  0.98726342  0.35786114
   0.73551848  0.98726342  0.35786114
   0.76448152  0.01273658  0.85786114
   0.00000000  0.09242025  0.25793285
   0.50000000  0.90757975  0.75793285
   0.00000000  0.66210658  0.06634486
   0.50000000  0.33789342  0.56634486
   0.00000000  0.40500000  0.85800000
   0.50000000  0.59500000  0.35800000
   0.22900000  0.17300000  0.10200000
   0.27100000  0.82700000  0.60200000
   0.72900000  0.82700000  0.60200000
   0.77100000  0.17300000  0.10200000
unknown system                          
           1
     8.274940    0.000000    0.000000
     0.000000    7.089310    0.000000
     0.000000    0.000000    7.593644
   P    S    Li
   2   8   6
Direct configuration=     2
   0.00000000  0.94385558  0.00723651
   0.50000000  0.05614442  0.50723651
   0.21912509  0.01815454  0.85836586
   0.28087491  0.98184546  0.35836586
   0.71912509  0.98184546  0.35836586
   0.78087491  0.01815454  0.85836586
   0.00000000  0.10334111  0.25668856
   0.50000000  0.89665889  0.75668856
   0.00000000  0.65329549  0.06955511
   0.50000000  0.34670451  0.56955511
   0.00000000  0.40346658  0.85511183
   0.50000000  0.59653342  0.35511183
   0.24465496  0.18433355  0.10333814
   0.25534504  0.81566645  0.60333814
   0.74465496  0.81566645  0.60333814
   0.75534504  0.18433355  0.10333814
unknown system                          
           1
     8.251473    0.000000    0.000000
     0.000000    7.086586    0.000000
     0.000000    0.000000    7.582097
   P    S    Li
   2   8   6
Direct configuration=     3
   0.00000000  0.94387517  0.00728065
   0.50000000  0.05612483  0.50728065
   0.21936541  0.01806183  0.85835780
   0.28063459  0.98193817  0.35835780
   0.71936541  0.98193817  0.35835780
   0.78063459  0.01806183  0.85835780
   0.00000000  0.10315424  0.25670844
   0.50000000  0.89684576  0.75670844
   0.00000000  0.65344626  0.06950382
   0.50000000  0.34655374  0.56950382
   0.00000000  0.40349282  0.85515797
   0.50000000  0.59650718  0.35515797
   0.24442547  0.18413962  0.10331676
   0.25557454  0.81586038  0.60331676
   0.74442546  0.81586038  0.60331676
   0.75557453  0.18413962  0.10331676
unknown system                          
           1
     8.573997    0.000000    0.000000
     0.000000    6.722538    0.000000
     0.000000    0.000000    7.509045
   P    S    Li
   2   8   6
Direct configuration=     4
   0.00000000  0.94961061  0.00488013
   0.50000000  0.05038939  0.50488013
   0.20451321  0.01604996  0.86421955
   0.29548679  0.98395004  0.36421955
   0.70451321  0.98395004  0.36421955
   0.79548679  0.01604996  0.86421955
   0.00000000  0.10196168  0.24005943
   0.50000000  0.89803832  0.74005943
   0.00000000  0.65692921  0.06791367
   0.50000000  0.34307079  0.56791367
   0.00000000  0.40017671  0.85513397
   0.50000000  0.59982329  0.35513397
   0.24784077  0.18576854  0.10778685
   0.25215923  0.81423146  0.60778685
   0.74784077  0.81423146  0.60778685
   0.75215923  0.18576854  0.10778685
unknown system                          
           1
     8.708881    0.000000    0.000000
     0.000000    6.570288    0.000000
     0.000000    0.000000    7.478494
   P    S    Li
   2   8   6
Direct configuration=     5
   0.00000000  0.95213914  0.00386644
   0.50000000  0.04786086  0.50386644
   0.19853547  0.01516301  0.86669486
   0.30146453  0.98483699  0.36669486
   0.69853547  0.98483699  0.36669486
   0.80146453  0.01516301  0.86669486
   0.00000000  0.10143593  0.23302885
   0.50000000  0.89856407  0.73302885
   0.00000000  0.65846471  0.06724218
   0.50000000  0.34153529  0.56724218
   0.00000000  0.39871477  0.85512383
   0.50000000  0.60128523  0.35512383
   0.24921536  0.18648666  0.10967449
   0.25078464  0.81351334  0.60967449
   0.74921536  0.81351334  0.60967449
   0.75078464  0.18648666  0.10967449
unknown system                          
           1
     8.716836    0.000000    0.000000
     0.000000    6.479038    0.000000
     0.000000    0.000000    7.572822
   P    S    Li
   2   8   6
Direct configuration=     6
   0.00000000  0.95218921 -0.00265373
   0.50000000  0.04781079  0.49734627
   0.18977860  0.01641081  0.86479570
   0.31022140  0.98358919  0.36479570
   0.68977860  0.98358919  0.36479570
   0.81022140  0.01641081  0.86479570
   0.00000000  0.11019779  0.22973964
   0.50000000  0.88980221  0.72973964
   0.00000000  0.64802214  0.06758207
   0.50000000  0.35197786  0.56758207
   0.00000000  0.39247036  0.85555622
   0.50000000  0.60752964  0.35555622
   0.25067210  0.18856846  0.11609219
   0.24932790  0.81143154  0.61609219
   0.75067210  0.81143154  0.61609219
   0.74932790  0.18856846  0.11609219
unknown system                          
           1
     8.717855    0.000000    0.000000
     0.000000    6.467354    0.000000
     0.000000    0.000000    7.584900
   P    S    Li
   2   8   6
Direct configuration=     7
   0.00000000  0.95219571 -0.00347822
   0.50000000  0.04780429  0.49652178
   0.18865833  0.01657284  0.86455555
   0.31134167  0.98342716  0.36455555
   0.68865833  0.98342716  0.36455555
   0.81134167  0.01657284  0.86455555
   0.00000000  0.11133553  0.22932372
   0.50000000  0.88866447  0.72932372
   0.00000000  0.64666616  0.06762505
   0.50000000  0.35333384  0.56762505
   0.00000000  0.39165951  0.85561089
   0.50000000  0.60834049  0.35561089
   0.25085846  0.18883878  0.11690373
   0.24914154  0.81116122  0.61690373
   0.75085846  0.81116122  0.61690373
   0.74914154  0.18883878  0.11690373
unknown system                          
           1
     8.783579    0.000000    0.000000
     0.000000    6.371719    0.000000
     0.000000    0.000000    7.646828
   P    S    Li
   2   8   6
Direct configuration=     8
   0.00000000  0.94749245 -0.00105080
   0.50000000  0.05250755  0.49894920
   0.18597525  0.02046752  0.86059718
   0.31402475  0.97953248  0.36059718
   0.68597525  0.97953248  0.36059718
   0.81402475  0.02046752  0.86059718
   0.00000000  0.11832953  0.22492436
   0.50000000  0.88167047  0.72492436
   0.00000000  0.63917877  0.06763485
   0.50000000  0.36082123  0.56763485
   0.00000000  0.38489137  0.85599716
   0.50000000  0.61510863  0.35599716
   0.25154981  0.19044809  0.12165004
   0.24845019  0.80955191  0.62165004
   0.75154981  0.80955191  0.62165004
   0.74845019  0.19044809  0.12165004
unknown system                          
           1
     8.889620    0.000000    0.000000
     0.000000    6.217419    0.000000
     0.000000    0.000000    7.746745
   P    S    Li
   2   8   6
Direct configuration=     9
   0.00000000  0.93979011  0.00283397
   0.50000000  0.06020989  0.50283397
   0.18167865  0.02684567  0.85426229
   0.31832135  0.97315433  0.35426229
   0.68167865  0.97315433  0.35426229
   0.81832135  0.02684567  0.85426229
   0.00000000  0.12978332  0.21788374
   0.50000000  0.87021668  0.71788374
   0.00000000  0.62691699  0.06765054
   0.50000000  0.37308301  0.56765054
   0.00000000  0.37380746  0.85661534
   0.50000000  0.62619254  0.35661534
   0.25265693  0.19308358  0.12924592
   0.24734307  0.80691642  0.62924592
   0.75265693  0.80691642  0.62924592
   0.74734307  0.19308358  0.12924592
unknown system                          
           1
     8.859627    0.000000    0.000000
     0.000000    6.106777    0.000000
     0.000000    0.000000    7.700360
   P    S    Li
   2   8   6
Direct configuration=    10
   0.00000000  0.93900488  0.00306787
   0.50000000  0.06099512  0.50306787
   0.17972544  0.03283791  0.85450152
   0.32027456  0.96716209  0.35450152
   0.67972544  0.96716209  0.35450152
   0.82027456  0.03283791  0.85450152
   0.00000000  0.13437818  0.21220056
   0.50000000  0.86562182  0.71220056
   0.00000000  0.62063820  0.06908934
   0.50000000  0.37936180  0.56908934
   0.00000000  0.36328550  0.85627590
   0.50000000  0.63671450  0.35627590
   0.25251999  0.19471747  0.13118165
   0.24748001  0.80528253  0.63118165
   0.75251999  0.80528253  0.63118165
   0.74748001  0.19471747  0.13118165
unknown system                          
           1
     8.843123    0.000000    0.000000
     0.000000    6.045892    0.000000
     0.000000    0.000000    7.674836
   P    S    Li
   2   8   6
Direct configuration=    11
   0.00000000  0.93856495  0.00319736
   0.50000000  0.06143505  0.50319736
   0.17864699  0.03619507  0.85463395
   0.32135301  0.96380493  0.35463395
   0.67864699  0.96380493  0.35463395
   0.82135301  0.03619507  0.85463395
   0.00000000  0.13695246  0.20905438
   0.50000000  0.86304754  0.70905438
   0.00000000  0.61712051  0.06988585
   0.50000000  0.38287949  0.56988585
   0.00000000  0.35739057  0.85608799
   0.50000000  0.64260943  0.35608799
   0.25244437  0.19563286  0.13225326
   0.24755563  0.80436714  0.63225326
   0.75244437  0.80436714  0.63225326
   0.74755563  0.19563286  0.13225326
unknown system                          
           1
     8.834044    0.000000    0.000000
     0.000000    6.024519    0.000000
     0.000000    0.000000    7.664880
   P    S    Li
   2   8   6
Direct configuration=    12
   0.00000000  0.93799241 -0.00017769
   0.50000000  0.06200759  0.49982231
   0.18041535  0.04075371  0.85592294
   0.31958465  0.95924629  0.35592294
   0.68041535  0.95924629  0.35592294
   0.81958465  0.04075371  0.85592294
   0.00000000  0.14096611  0.21070444
   0.50000000  0.85903389  0.71070444
   0.00000000  0.61483970  0.07162638
   0.50000000  0.38516030  0.57162638
   0.00000000  0.34883161  0.85514469
   0.50000000  0.65116839  0.35514469
   0.25219195  0.19730149  0.13142815
   0.24780805  0.80269851  0.63142815
   0.75219195  0.80269851  0.63142815
   0.74780805  0.19730149  0.13142815
unknown system                          
           1
     8.829717    0.000000    0.000000
     0.000000    6.014330    0.000000
     0.000000    0.000000    7.660135
   P    S    Li
   2   8   6
Direct configuration=    13
   0.00000000  0.93771850 -0.00178869
   0.50000000  0.06228150  0.49821131
   0.18125921  0.04293455  0.85653821
   0.31874079  0.95706545  0.35653821
   0.68125921  0.95706545  0.35653821
   0.81874079  0.04293455  0.85653821
   0.00000000  0.14288623  0.21149205
   0.50000000  0.85711377  0.71149205
   0.00000000  0.61374857  0.07245718
   0.50000000  0.38625143  0.57245718
   0.00000000  0.34473703  0.85469444
   0.50000000  0.65526297  0.35469444
   0.25207150  0.19809976  0.13103430
   0.24792850  0.80190024  0.63103430
   0.75207150  0.80190024  0.63103430
   0.74792850  0.19809976  0.13103430
unknown system                          
           1
     8.814745    0.000000    0.000000
     0.000000    5.996556    0.000000
     0.000000    0.000000    7.612335
   P    S    Li
   2   8   6
Direct configuration=    14
   0.00000000  0.93995258 -0.00010766
   0.50000000  0.06004742  0.49989234
   0.18453055  0.04489638  0.85674147
   0.31546945  0.95510362  0.35674147
   0.68453055  0.95510362  0.35674147
   0.81546945  0.04489638  0.85674147
   0.00000000  0.14259434  0.21229067
   0.50000000  0.85740566  0.71229067
   0.00000000  0.61515317  0.07227329
   0.50000000  0.38484683  0.57227329
   0.00000000  0.33936481  0.85409186
   0.50000000  0.66063519  0.35409186
   0.25181598  0.19971730  0.12998445
   0.24818402  0.80028270  0.62998445
   0.75181598  0.80028270  0.62998445
   0.74818402  0.19971730  0.12998445
unknown system                          
           1
     8.807899    0.000000    0.000000
     0.000000    5.988429    0.000000
     0.000000    0.000000    7.590481
   P    S    Li
   2   8   6
Direct configuration=    15
   0.00000000  0.94097705  0.00066575
   0.50000000  0.05902295  0.50066575
   0.18602878  0.04579601  0.85683499
   0.31397122  0.95420399  0.35683499
   0.68602878  0.95420399  0.35683499
   0.81397122  0.04579601  0.85683499
   0.00000000  0.14246048  0.21265809
   0.50000000  0.85753952  0.71265809
   0.00000000  0.61579727  0.07218869
   0.50000000  0.38420273  0.57218869
   0.00000000  0.33690129  0.85381462
   0.50000000  0.66309871  0.35381462
   0.25169895  0.20045905  0.12950143
   0.24830105  0.79954095  0.62950143
   0.75169895  0.79954095  0.62950143
   0.74830105  0.20045905  0.12950143
unknown system                          
           1
     8.723182    0.000000    0.000000
     0.000000    5.998175    0.000000
     0.000000    0.000000    7.552947
   P    S    Li
   2   8   6
Direct configuration=    16
   0.00000000  0.94397892  0.00014126
   0.50000000  0.05602108  0.50014126
   0.18761435  0.04536632  0.85710228
   0.31238565  0.95463368  0.35710228
   0.68761435  0.95463368  0.35710228
   0.81238565  0.04536632  0.85710228
   0.00000000  0.14265318  0.21574449
   0.50000000  0.85734682  0.71574449
   0.00000000  0.61790667  0.07083703
   0.50000000  0.38209333  0.57083703
   0.00000000  0.33416277  0.85325816
   0.50000000  0.66583723  0.35325816
   0.25176082  0.20263653  0.12890725
   0.24823918  0.79736347  0.62890725
   0.75176082  0.79736347  0.62890725
   0.74823918  0.20263653  0.12890725
unknown system                          
           1
     8.633118    0.000000    0.000000
     0.000000    6.008537    0.000000
     0.000000    0.000000    7.513045
   P    S    Li
   2   8   6
Direct configuration=    17
   0.00000000  0.94716509 -0.00041912
   0.50000000  0.05283491  0.49958088
   0.18931637  0.04491025  0.85738785
   0.31068363  0.95508975  0.35738785
   0.68931637  0.95508975  0.35738785
   0.81068363  0.04491025  0.85738785
   0.00000000  0.14285770  0.21904201
   0.50000000  0.85714230  0.71904201
   0.00000000  0.62014557  0.06939291
   0.50000000  0.37985443  0.56939291
   0.00000000  0.33125613  0.85266364
   0.50000000  0.66874387  0.35266364
   0.25182724  0.20494769  0.12827243
   0.24817276  0.79505231  0.62827243
   0.75182724  0.79505231  0.62827243
   0.74817276  0.20494769  0.12827243
unknown system                          
           1
     8.597663    0.000000    0.000000
     0.000000    6.036037    0.000000
     0.000000    0.000000    7.482622
   P    S    Li
   2   8   6
Direct configuration=    18
   0.00000000  0.94776176  0.00121107
   0.50000000  0.05223824  0.50121107
   0.19151090  0.04433995  0.85664864
   0.30848910  0.95566005  0.35664864
   0.69151090  0.95566005  0.35664864
   0.80848910  0.04433995  0.85664864
   0.00000000  0.14323192  0.22235089
   0.50000000  0.85676808  0.72235089
   0.00000000  0.62319174  0.06691877
   0.50000000  0.37680826  0.56691877
   0.00000000  0.33075852  0.85185582
   0.50000000  0.66924148  0.35185582
   0.25249011  0.20847964  0.12818308
   0.24750989  0.79152036  0.62818308
   0.75249011  0.79152036  0.62818308
   0.74750989  0.20847964  0.12818308
unknown system                          
           1
     8.596510    0.000000    0.000000
     0.000000    6.036931    0.000000
     0.000000    0.000000    7.481633
   P    S    Li
   2   8   6
Direct configuration=    19
   0.00000000  0.94778107  0.00126428
   0.50000000  0.05221893  0.50126428
   0.19158254  0.04432149  0.85662451
   0.30841746  0.95567851  0.35662451
   0.69158254  0.95567851  0.35662451
   0.80841746  0.04432149  0.85662451
   0.00000000  0.14324403  0.22245891
   0.50000000  0.85675597  0.72245891
   0.00000000  0.62329032  0.06683801
   0.50000000  0.37670968  0.56683801
   0.00000000  0.33074242  0.85182945
   0.50000000  0.66925758  0.35182945
   0.25251174  0.20859394  0.12818017
   0.24748826  0.79140606  0.62818017
   0.75251174  0.79140606  0.62818017
   0.74748826  0.20859394  0.12818017
unknown system                          
           1
     8.605530    0.000000    0.000000
     0.000000    6.057186    0.000000
     0.000000    0.000000    7.451776
   P    S    Li
   2   8   6
Direct configuration=    20
   0.00000000  0.94877819  0.00198641
   0.50000000  0.05122181  0.50198641
   0.19128609  0.04420043  0.85673631
   0.30871391  0.95579957  0.35673631
   0.69128609  0.95579957  0.35673631
   0.80871391  0.04420043  0.85673631
   0.00000000  0.14317505  0.22233595
   0.50000000  0.85682495  0.72233595
   0.00000000  0.62346871  0.06570936
   0.50000000  0.37653129  0.56570936
   0.00000000  0.33206072  0.85131891
   0.50000000  0.66793928  0.35131891
   0.25317547  0.21075479  0.12858837
   0.24682453  0.78924521  0.62858837
   0.75317547  0.78924521  0.62858837
   0.74682453  0.21075479  0.12858837
unknown system                          
           1
     8.616909    0.000000    0.000000
     0.000000    6.082741    0.000000
     0.000000    0.000000    7.414108
   P    S    Li
   2   8   6
Direct configuration=    21
   0.00000000  0.95003198  0.00290111
   0.50000000  0.04996802  0.50290111
   0.19091248  0.04404821  0.85687793
   0.30908752  0.95595179  0.35687793
   0.69091248  0.95595179  0.35687793
   0.80908752  0.04404821  0.85687793
   0.00000000  0.14308831  0.22218021
   0.50000000  0.85691169  0.72218021
   0.00000000  0.62369303  0.06427973
   0.50000000  0.37630697  0.56427973
   0.00000000  0.33371835  0.85067223
   0.50000000  0.66628165  0.35067223
   0.25401197  0.21347184  0.12910543
   0.24598803  0.78652816  0.62910543
   0.75401197  0.78652816  0.62910543
   0.74598803  0.21347184  0.12910543
unknown system                          
           1
     8.627097    0.000000    0.000000
     0.000000    6.090523    0.000000
     0.000000    0.000000    7.400116
   P    S    Li
   2   8   6
Direct configuration=    22
   0.00000000  0.94968096  0.00255434
   0.50000000  0.05031904  0.50255434
   0.19044786  0.04411386  0.85689629
   0.30955214  0.95588614  0.35689629
   0.69044786  0.95588614  0.35689629
   0.80955214  0.04411386  0.85689629
   0.00000000  0.14380330  0.22278940
   0.50000000  0.85619670  0.72278940
   0.00000000  0.62435605  0.06347926
   0.50000000  0.37564395  0.56347926
   0.00000000  0.33466517  0.85020209
   0.50000000  0.66533483  0.35020209
   0.25450146  0.21517488  0.12959115
   0.24549854  0.78482512  0.62959115
   0.75450146  0.78482512  0.62959115
   0.74549854  0.21517488  0.12959115
unknown system                          
           1
     8.641093    0.000000    0.000000
     0.000000    6.101214    0.000000
     0.000000    0.000000    7.380893
   P    S    Li
   2   8   6
Direct configuration=    23
   0.00000000  0.94919933  0.00207704
   0.50000000  0.05080067  0.50207704
   0.18981029  0.04420393  0.85692158
   0.31018971  0.95579607  0.35692158
   0.68981029  0.95579607  0.35692158
   0.81018971  0.04420393  0.85692158
   0.00000000  0.14478432  0.22362792
   0.50000000  0.85521568  0.72362792
   0.00000000  0.62526577  0.06237748
   0.50000000  0.37473423  0.56237748
   0.00000000  0.33596428  0.84955497
   0.50000000  0.66403572  0.34955497
   0.25517315  0.21751158  0.13025972
   0.24482685  0.78248842  0.63025972
   0.75517315  0.78248842  0.63025972
   0.74482685  0.21751158  0.13025972
unknown system                          
           1
     8.648531    0.000000    0.000000
     0.000000    6.093715    0.000000
     0.000000    0.000000    7.372826
   P    S    Li
   2   8   6
Direct configuration=    24
   0.00000000  0.94968297  0.00201423
   0.50000000  0.05031703  0.50201423
   0.18967055  0.04452954  0.85662289
   0.31032945  0.95547046  0.35662289
   0.68967055  0.95547046  0.35662289
   0.81032945  0.04452954  0.85662289
   0.00000000  0.14524683  0.22382560
   0.50000000  0.85475317  0.72382560
   0.00000000  0.62552916  0.06226713
   0.50000000  0.37447084  0.56226713
   0.00000000  0.33595910  0.84929551
   0.50000000  0.66404090  0.34929551
   0.25514838  0.21815937  0.13067587
   0.24485162  0.78184063  0.63067587
   0.75514838  0.78184063  0.63067587
   0.74485162  0.21815937  0.13067587
unknown system                          
           1
     8.670843    0.000000    0.000000
     0.000000    6.071218    0.000000
     0.000000    0.000000    7.348625
   P    S    Li
   2   8   6
Direct configuration=    25
   0.00000000  0.95113566  0.00182561
   0.50000000  0.04886434  0.50182561
   0.18925168  0.04550757  0.85572586
   0.31074832  0.95449243  0.35572586
   0.68925168  0.95449243  0.35572586
   0.81074832  0.04550757  0.85572586
   0.00000000  0.14663605  0.22441931
   0.50000000  0.85336395  0.72441931
   0.00000000  0.62632031  0.06193571
   0.50000000  0.37367969  0.56193571
   0.00000000  0.33594355  0.84851626
   0.50000000  0.66405645  0.34851626
   0.25507414  0.22010512  0.13192569
   0.24492586  0.77989488  0.63192569
   0.75507414  0.77989488  0.63192569
   0.74492586  0.22010512  0.13192569
unknown system                          
           1
     8.715468    0.000000    0.000000
     0.000000    6.026224    0.000000
     0.000000    0.000000    7.300222
   P    S    Li
   2   8   6
Direct configuration=    26
   0.00000000  0.95405183  0.00144713
   0.50000000  0.04594817  0.50144713
   0.18841609  0.04747089  0.85392589
   0.31158391  0.95252911  0.35392589
   0.68841609  0.95252911  0.35392589
   0.81158391  0.04747089  0.85392589
   0.00000000  0.14942479  0.22561065
   0.50000000  0.85057521  0.72561065
   0.00000000  0.62790847  0.06127068
   0.50000000  0.37209153  0.56127068
   0.00000000  0.33591232  0.84695264
   0.50000000  0.66408768  0.34695264
   0.25492603  0.22401105  0.13443356
   0.24507397  0.77598895  0.63443356
   0.75492603  0.77598895  0.63443356
   0.74507397  0.22401105  0.13443356
unknown system                          
           1
     8.718587    0.000000    0.000000
     0.000000    6.025078    0.000000
     0.000000    0.000000    7.293560
   P    S    Li
   2   8   6
Direct configuration=    27
   0.00000000  0.95449398  0.00132315
   0.50000000  0.04550602  0.50132315
   0.18835892  0.04789851  0.85371806
   0.31164108  0.95210149  0.35371806
   0.68835892  0.95210149  0.35371806
   0.81164108  0.04789851  0.85371806
   0.00000000  0.14987038  0.22583938
   0.50000000  0.85012962  0.72583938
   0.00000000  0.62790420  0.06127499
   0.50000000  0.37209580  0.56127499
   0.00000000  0.33596631  0.84668521
   0.50000000  0.66403369  0.34668521
   0.25483619  0.22453467  0.13472059
   0.24516381  0.77546533  0.63472059
   0.75483619  0.77546533  0.63472059
   0.74516381  0.22453467  0.13472059
unknown system                          
           1
     8.727944    0.000000    0.000000
     0.000000    6.021642    0.000000
     0.000000    0.000000    7.273573
   P    S    Li
   2   8   6
Direct configuration=    28
   0.00000000  0.95582068  0.00095086
   0.50000000  0.04417932  0.50095086
   0.18818747  0.04918163  0.85309398
   0.31181253  0.95081837  0.35309398
   0.68818747  0.95081837  0.35309398
   0.81181253  0.04918163  0.85309398
   0.00000000  0.15120739  0.22652619
   0.50000000  0.84879261  0.72652619
   0.00000000  0.62789140  0.06128790
   0.50000000  0.37210860  0.56128790
   0.00000000  0.33612830  0.84588216
   0.50000000  0.66387170  0.34588216
   0.25456675  0.22610583  0.13558247
   0.24543325  0.77389417  0.63558247
   0.75456675  0.77389417  0.63558247
   0.74543325  0.22610583  0.13558247
unknown system                          
           1
     8.746657    0.000000    0.000000
     0.000000    6.014770    0.000000
     0.000000    0.000000    7.233599
   P    S    Li
   2   8   6
Direct configuration=    29
   0.00000000  0.95847561  0.00020425
   0.50000000  0.04152439  0.50020425
   0.18784495  0.05174934  0.85184239
   0.31215505  0.94825066  0.35184239
   0.68784495  0.94825066  0.35184239
   0.81215505  0.05174934  0.85184239
   0.00000000  0.15388294  0.22790358
   0.50000000  0.84611706  0.72790358
   0.00000000  0.62786577  0.06131381
   0.50000000  0.37213423  0.56131381
   0.00000000  0.33645248  0.84427164
   0.50000000  0.66354752  0.34427164
   0.25402846  0.22924995  0.13731097
   0.24597154  0.77075005  0.63731097
   0.75402846  0.77075005  0.63731097
   0.74597154  0.22924995  0.13731097
unknown system                          
           1
     8.784083    0.000000    0.000000
     0.000000    6.001025    0.000000
     0.000000    0.000000    7.153652
   P    S    Li
   2   8   6
Direct configuration=    30
   0.00000000  0.96379153 -0.00129724
   0.50000000  0.03620847  0.49870276
   0.18716137  0.05689063  0.84932538
   0.31283863  0.94310937  0.34932538
   0.68716137  0.94310937  0.34932538
   0.81283863  0.05689063  0.84932538
   0.00000000  0.15924016  0.23067359
   0.50000000  0.84075984  0.73067359
   0.00000000  0.62781447  0.06136590
   0.50000000  0.37218553  0.56136590
   0.00000000  0.33710157  0.84103282
   0.50000000  0.66289843  0.34103282
   0.25295418  0.23554538  0.14078708
   0.24704582  0.76445462  0.64078708
   0.75295418  0.76445462  0.64078708
   0.74704582  0.23554538  0.14078708
unknown system                          
           1
     8.763185    0.000000    0.000000
     0.000000    6.008700    0.000000
     0.000000    0.000000    7.198293
   P    S    Li
   2   8   6
Direct configuration=    31
   0.00000000  0.96081643 -0.00044947
   0.50000000  0.03918357  0.49955053
   0.18754144  0.05401326  0.85074654
   0.31245856  0.94598674  0.35074654
   0.68754144  0.94598674  0.35074654
   0.81245856  0.05401326  0.85074654
   0.00000000  0.15624194  0.22910959
   0.50000000  0.84375806  0.72910959
   0.00000000  0.62784318  0.06133649
   0.50000000  0.37215682  0.56133649
   0.00000000  0.33673830  0.84286152
   0.50000000  0.66326170  0.34286152
   0.25355148  0.23202208  0.13882440
   0.24644852  0.76797792  0.63882440
   0.75355148  0.76797792  0.63882440
   0.74644852  0.23202208  0.13882440
unknown system                          
           1
     8.763779    0.000000    0.000000
     0.000000    6.006850    0.000000
     0.000000    0.000000    7.179598
   P    S    Li
   2   8   6
Direct configuration=    32
   0.00000000  0.96126403 -0.00048990
   0.50000000  0.03873597  0.49951010
   0.18752053  0.05512500  0.85033100
   0.31247947  0.94487500  0.35033100
   0.68752053  0.94487500  0.35033100
   0.81247947  0.05512500  0.85033100
   0.00000000  0.15713135  0.22958261
   0.50000000  0.84286865  0.72958261
   0.00000000  0.62827813  0.06132227
   0.50000000  0.37172187  0.56132227
   0.00000000  0.33709459  0.84216175
   0.50000000  0.66290541  0.34216175
   0.25328329  0.23313479  0.13938063
   0.24671671  0.76686521  0.63938063
   0.75328329  0.76686521  0.63938063
   0.74671671  0.23313479  0.13938063
unknown system                          
           1
     8.765561    0.000000    0.000000
     0.000000    6.001301    0.000000
     0.000000    0.000000    7.123511
   P    S    Li
   2   8   6
Direct configuration=    33
   0.00000000  0.96260724 -0.00061152
   0.50000000  0.03739276  0.49938848
   0.18745779  0.05846127  0.84908114
   0.31254221  0.94153873  0.34908114
   0.68745779  0.94153873  0.34908114
   0.81254221  0.05846127  0.84908114
   0.00000000  0.15980040  0.23100536
   0.50000000  0.84019960  0.73100536
   0.00000000  0.62958338  0.06127952
   0.50000000  0.37041662  0.56127952
   0.00000000  0.33816378  0.84005697
   0.50000000  0.66183622  0.34005697
   0.25247879  0.23647394  0.14105369
   0.24752121  0.76352606  0.64105369
   0.75247879  0.76352606  0.64105369
   0.74752121  0.23647394  0.14105369
unknown system                          
           1
     8.769126    0.000000    0.000000
     0.000000    5.990202    0.000000
     0.000000    0.000000    7.011338
   P    S    Li
   2   8   6
Direct configuration=    34
   0.00000000  0.96529616 -0.00085667
   0.50000000  0.03470384  0.49914333
   0.18733234  0.06513997  0.84656175
   0.31266766  0.93486003  0.34656175
   0.68733234  0.93486003  0.34656175
   0.81266766  0.06513997  0.84656175
   0.00000000  0.16514344  0.23387328
   0.50000000  0.83485656  0.73387328
   0.00000000  0.63219629  0.06119334
   0.50000000  0.36780371  0.56119334
   0.00000000  0.34030415  0.83581426
   0.50000000  0.65969585  0.33581426
   0.25087012  0.24315841  0.14442615
   0.24912988  0.75684159  0.64442615
   0.75087012  0.75684159  0.64442615
   0.74912988  0.24315841  0.14442615
unknown system                          
           1
     8.776256    0.000000    0.000000
     0.000000    5.968006    0.000000
     0.000000    0.000000    6.786991
   P    S    Li
   2   8   6
Direct configuration=    35
   0.00000000  0.97068395 -0.00135481
   0.50000000  0.02931605  0.49864519
   0.18708154  0.07852212  0.84144234
   0.31291846  0.92147788  0.34144234
   0.68708154  0.92147788  0.34144234
   0.81291846  0.07852212  0.84144234
   0.00000000  0.17584931  0.23970088
   0.50000000  0.82415069  0.73970088
   0.00000000  0.63743179  0.06101822
   0.50000000  0.36256821  0.56101822
   0.00000000  0.34459280  0.82719308
   0.50000000  0.65540720  0.32719308
   0.24765407  0.25655213  0.15127898
   0.25234593  0.74344787  0.65127898
   0.74765407  0.74344787  0.65127898
   0.75234593  0.25655213  0.15127898
unknown system                          
           1
     8.773207    0.000000    0.000000
     0.000000    5.977497    0.000000
     0.000000    0.000000    6.882925
   P    S    Li
   2   8   6
Direct configuration=    36
   0.00000000  0.96837147 -0.00113476
   0.50000000  0.03162853  0.49886524
   0.18718870  0.07277840  0.84370385
   0.31281130  0.92722160  0.34370385
   0.68718870  0.92722160  0.34370385
   0.81281130  0.07277840  0.84370385
   0.00000000  0.17125427  0.23712652
   0.50000000  0.82874573  0.73712652
   0.00000000  0.63518467  0.06109558
   0.50000000  0.36481533  0.56109558
   0.00000000  0.34275208  0.83100150
   0.50000000  0.65724792  0.33100150
   0.24902819  0.25080345  0.14825172
   0.25097181  0.74919655  0.64825172
   0.74902819  0.74919655  0.64825172
   0.75097181  0.25080345  0.14825172