  16  16   0   0
  0.1793569E+02  0.7448773E-09  0.6432063E-09  0.5989672E-09  0.5000000E-15
  1.000000000000000E-004
  CAR 
 unknown system                          
     11.25242224    -43.85055533  301      2.84921816      1.00000000
    -43.851  0.0000E+00  0.0000E+00
    -43.667  0.0000E+00  0.0000E+00
    -43.483  0.0000E+00  0.0000E+00
    -43.300  0.0000E+00  0.0000E+00
    -43.116  0.0000E+00  0.0000E+00
    -42.932  0.0000E+00  0.0000E+00
    -42.748  0.0000E+00  0.0000E+00
    -42.565  0.0000E+00  0.0000E+00
    -42.381  0.0000E+00  0.0000E+00
    -42.197  0.0000E+00  0.0000E+00
    -42.014  0.0000E+00  0.0000E+00
    -41.830  0.0000E+00  0.0000E+00
    -41.646  0.0000E+00  0.0000E+00
    -41.463  0.0000E+00  0.0000E+00
    -41.279  0.0000E+00  0.4000E-01
    -41.095  0.0000E+00  0.4000E-01
    -40.912  0.0000E+00  0.4000E-01
    -40.728  0.0000E+00  0.4000E-01
    -40.544  0.0000E+00  0.1200E+00
    -40.361  0.0000E+00  0.1200E+00
    -40.177  0.0000E+00  0.1200E+00
    -39.993  0.0000E+00  0.1200E+00
    -39.810  0.0000E+00  0.1200E+00
    -39.626  0.0000E+00  0.1200E+00
    -39.442  0.0000E+00  0.1200E+00
    -39.259  0.0000E+00  0.1200E+00
    -39.075  0.0000E+00  0.1200E+00
    -38.891  0.0000E+00  0.1200E+00
    -38.708  0.0000E+00  0.1200E+00
    -38.524  0.0000E+00  0.1200E+00
    -38.340  0.0000E+00  0.1200E+00
    -38.157  0.0000E+00  0.1200E+00
    -37.973  0.0000E+00  0.1200E+00
    -37.789  0.0000E+00  0.1200E+00
    -37.606  0.0000E+00  0.1200E+00
    -37.422  0.0000E+00  0.1200E+00
    -37.238  0.0000E+00  0.1200E+00
    -37.055  0.0000E+00  0.1200E+00
    -36.871  0.0000E+00  0.1200E+00
    -36.687  0.0000E+00  0.1200E+00
    -36.503  0.0000E+00  0.1200E+00
    -36.320  0.0000E+00  0.1200E+00
    -36.136  0.0000E+00  0.1200E+00
    -35.952  0.0000E+00  0.1200E+00
    -35.769  0.0000E+00  0.1200E+00
    -35.585  0.0000E+00  0.1200E+00
    -35.401  0.0000E+00  0.1200E+00
    -35.218  0.0000E+00  0.1200E+00
    -35.034  0.0000E+00  0.1200E+00
    -34.850  0.0000E+00  0.1200E+00
    -34.667  0.0000E+00  0.1200E+00
    -34.483  0.0000E+00  0.1200E+00
    -34.299  0.0000E+00  0.1200E+00
    -34.116  0.0000E+00  0.1200E+00
    -33.932  0.0000E+00  0.1200E+00
    -33.748  0.0000E+00  0.1200E+00
    -33.565  0.0000E+00  0.1200E+00
    -33.381  0.0000E+00  0.1200E+00
    -33.197  0.0000E+00  0.1200E+00
    -33.014  0.0000E+00  0.1200E+00
    -32.830  0.0000E+00  0.1200E+00
    -32.646  0.0000E+00  0.1200E+00
    -32.463  0.0000E+00  0.1200E+00
    -32.279  0.0000E+00  0.1200E+00
    -32.095  0.0000E+00  0.1200E+00
    -31.912  0.0000E+00  0.1200E+00
    -31.728  0.0000E+00  0.1200E+00
    -31.544  0.0000E+00  0.1200E+00
    -31.361  0.0000E+00  0.1200E+00
    -31.177  0.0000E+00  0.1200E+00
    -30.993  0.0000E+00  0.1200E+00
    -30.810  0.0000E+00  0.1200E+00
    -30.626  0.0000E+00  0.1200E+00
    -30.442  0.0000E+00  0.1200E+00
    -30.258  0.0000E+00  0.1200E+00
    -30.075  0.0000E+00  0.1200E+00
    -29.891  0.0000E+00  0.1200E+00
    -29.707  0.0000E+00  0.1200E+00
    -29.524  0.0000E+00  0.1200E+00
    -29.340  0.0000E+00  0.1200E+00
    -29.156  0.0000E+00  0.1200E+00
    -28.973  0.0000E+00  0.1200E+00
    -28.789  0.0000E+00  0.1200E+00
    -28.605  0.0000E+00  0.1200E+00
    -28.422  0.0000E+00  0.1200E+00
    -28.238  0.0000E+00  0.1200E+00
    -28.054  0.0000E+00  0.1200E+00
    -27.871  0.0000E+00  0.1200E+00
    -27.687  0.0000E+00  0.1200E+00
    -27.503  0.0000E+00  0.1200E+00
    -27.320  0.0000E+00  0.1200E+00
    -27.136  0.0000E+00  0.1200E+00
    -26.952  0.0000E+00  0.1200E+00
    -26.769  0.0000E+00  0.1200E+00
    -26.585  0.0000E+00  0.1200E+00
    -26.401  0.0000E+00  0.1200E+00
    -26.218  0.0000E+00  0.1200E+00
    -26.034  0.0000E+00  0.1200E+00
    -25.850  0.0000E+00  0.1200E+00
    -25.667  0.0000E+00  0.1200E+00
    -25.483  0.0000E+00  0.1200E+00
    -25.299  0.0000E+00  0.1200E+00
    -25.116  0.0000E+00  0.1200E+00
    -24.932  0.0000E+00  0.1200E+00
    -24.748  0.0000E+00  0.1200E+00
    -24.565  0.0000E+00  0.1200E+00
    -24.381  0.0000E+00  0.1200E+00
    -24.197  0.0000E+00  0.1200E+00
    -24.013  0.0000E+00  0.1200E+00
    -23.830  0.0000E+00  0.1200E+00
    -23.646  0.0000E+00  0.1200E+00
    -23.462  0.0000E+00  0.1200E+00
    -23.279  0.0000E+00  0.1200E+00
    -23.095  0.0000E+00  0.1200E+00
    -22.911  0.0000E+00  0.1200E+00
    -22.728  0.0000E+00  0.1200E+00
    -22.544  0.0000E+00  0.1200E+00
    -22.360  0.0000E+00  0.1200E+00
    -22.177  0.0000E+00  0.1200E+00
    -21.993  0.0000E+00  0.1200E+00
    -21.809  0.0000E+00  0.1200E+00
    -21.626  0.0000E+00  0.1200E+00
    -21.442  0.0000E+00  0.1200E+00
    -21.258  0.0000E+00  0.1200E+00
    -21.075  0.0000E+00  0.1200E+00
    -20.891  0.0000E+00  0.1200E+00
    -20.707  0.0000E+00  0.1200E+00
    -20.524  0.0000E+00  0.1200E+00
    -20.340  0.0000E+00  0.1200E+00
    -20.156  0.0000E+00  0.1200E+00
    -19.973  0.0000E+00  0.1200E+00
    -19.789  0.0000E+00  0.1200E+00
    -19.605  0.0000E+00  0.1200E+00
    -19.422  0.0000E+00  0.1200E+00
    -19.238  0.0000E+00  0.1200E+00
    -19.054  0.0000E+00  0.1200E+00
    -18.871  0.0000E+00  0.1200E+00
    -18.687  0.0000E+00  0.1200E+00
    -18.503  0.0000E+00  0.1200E+00
    -18.320  0.0000E+00  0.1200E+00
    -18.136  0.0000E+00  0.1200E+00
    -17.952  0.0000E+00  0.1200E+00
    -17.768  0.0000E+00  0.1200E+00
    -17.585  0.0000E+00  0.1200E+00
    -17.401  0.0000E+00  0.1200E+00
    -17.217  0.0000E+00  0.1200E+00
    -17.034  0.0000E+00  0.1200E+00
    -16.850  0.0000E+00  0.1200E+00
    -16.666  0.0000E+00  0.1200E+00
    -16.483  0.0000E+00  0.1200E+00
    -16.299  0.0000E+00  0.1200E+00
    -16.115  0.0000E+00  0.1200E+00
    -15.932  0.0000E+00  0.1200E+00
    -15.748  0.0000E+00  0.1200E+00
    -15.564  0.0000E+00  0.1200E+00
    -15.381  0.0000E+00  0.1200E+00
    -15.197  0.0000E+00  0.1200E+00
    -15.013  0.0000E+00  0.1200E+00
    -14.830  0.0000E+00  0.1200E+00
    -14.646  0.0000E+00  0.1200E+00
    -14.462  0.0000E+00  0.1200E+00
    -14.279  0.0000E+00  0.1200E+00
    -14.095  0.0000E+00  0.1200E+00
    -13.911  0.0000E+00  0.1200E+00
    -13.728  0.0000E+00  0.1200E+00
    -13.544  0.0000E+00  0.1200E+00
    -13.360  0.0000E+00  0.1200E+00
    -13.177  0.0000E+00  0.1200E+00
    -12.993  0.0000E+00  0.1200E+00
    -12.809  0.0000E+00  0.1200E+00
    -12.626  0.0000E+00  0.1200E+00
    -12.442  0.0000E+00  0.1200E+00
    -12.258  0.1801E+00  0.1335E+00
    -12.075  0.0000E+00  0.1600E+00
    -11.891  0.0000E+00  0.1600E+00
    -11.707  0.0000E+00  0.1600E+00
    -11.523  0.0000E+00  0.1600E+00
    -11.340  0.0000E+00  0.1600E+00
    -11.156  0.0000E+00  0.1600E+00
    -10.972  0.0000E+00  0.1600E+00
    -10.789  0.0000E+00  0.1600E+00
    -10.605  0.0000E+00  0.1600E+00
    -10.421  0.0000E+00  0.1600E+00
    -10.238  0.0000E+00  0.1600E+00
    -10.054  0.0000E+00  0.1600E+00
     -9.870  0.0000E+00  0.1600E+00
     -9.687  0.0000E+00  0.1600E+00
     -9.503  0.0000E+00  0.1600E+00
     -9.319  0.9117E-01  0.1985E+00
     -9.136  0.1002E+00  0.2338E+00
     -8.952  0.7866E-01  0.2713E+00
     -8.768  0.0000E+00  0.2800E+00
     -8.585  0.0000E+00  0.2800E+00
     -8.401  0.0000E+00  0.2800E+00
     -8.217  0.0000E+00  0.2800E+00
     -8.034  0.0000E+00  0.2800E+00
     -7.850  0.0000E+00  0.2800E+00
     -7.666  0.0000E+00  0.2800E+00
     -7.483  0.0000E+00  0.2800E+00
     -7.299  0.0000E+00  0.2800E+00
     -7.115  0.0000E+00  0.2800E+00
     -6.932  0.0000E+00  0.2800E+00
     -6.748  0.0000E+00  0.2800E+00
     -6.564  0.0000E+00  0.2800E+00
     -6.381  0.0000E+00  0.2800E+00
     -6.197  0.0000E+00  0.2800E+00
     -6.013  0.0000E+00  0.2800E+00
     -5.830  0.0000E+00  0.2800E+00
     -5.646  0.0000E+00  0.2800E+00
     -5.462  0.0000E+00  0.2800E+00
     -5.278  0.1837E-01  0.2816E+00
     -5.095  0.5744E-01  0.2888E+00
     -4.911  0.9114E-01  0.2995E+00
     -4.727  0.0000E+00  0.3200E+00
     -4.544  0.0000E+00  0.3200E+00
     -4.360  0.0000E+00  0.3200E+00
     -4.176  0.0000E+00  0.3200E+00
     -3.993  0.0000E+00  0.3200E+00
     -3.809  0.0000E+00  0.3200E+00
     -3.625  0.0000E+00  0.3200E+00
     -3.442  0.0000E+00  0.3200E+00
     -3.258  0.0000E+00  0.3200E+00
     -3.074  0.0000E+00  0.3200E+00
     -2.891  0.0000E+00  0.3200E+00
     -2.707  0.0000E+00  0.3200E+00
     -2.523  0.0000E+00  0.3200E+00
     -2.340  0.9150E-01  0.3316E+00
     -2.156  0.1194E+00  0.3642E+00
     -1.972  0.8660E-01  0.3920E+00
     -1.789  0.2482E+00  0.4140E+00
     -1.605  0.0000E+00  0.4400E+00
     -1.421  0.0000E+00  0.4400E+00
     -1.238  0.0000E+00  0.4400E+00
     -1.054  0.0000E+00  0.4400E+00
     -0.870  0.0000E+00  0.4400E+00
     -0.687  0.0000E+00  0.4400E+00
     -0.503  0.0000E+00  0.4400E+00
     -0.319  0.0000E+00  0.4400E+00
     -0.136  0.0000E+00  0.4400E+00
      0.048  0.1737E+00  0.4687E+00
      0.232  0.7047E-01  0.4830E+00
      0.416  0.1443E+00  0.5046E+00
      0.599  0.1300E+00  0.5268E+00
      0.783  0.1024E+00  0.5517E+00
      0.967  0.6555E-01  0.5607E+00
      1.150  0.5578E-01  0.5841E+00
      1.334  0.6558E-01  0.5996E+00
      1.518  0.1377E+00  0.6162E+00
      1.701  0.5490E-01  0.6404E+00
      1.885  0.2463E+00  0.6614E+00
      2.069  0.1006E+00  0.6832E+00
      2.252  0.1538E+00  0.7072E+00
      2.436  0.0000E+00  0.7200E+00
      2.620  0.1371E+00  0.7466E+00
      2.803  0.0000E+00  0.7600E+00
      2.987  0.0000E+00  0.7600E+00
      3.171  0.0000E+00  0.7600E+00
      3.354  0.0000E+00  0.7600E+00
      3.538  0.0000E+00  0.7600E+00
      3.722  0.0000E+00  0.7600E+00
      3.905  0.0000E+00  0.7600E+00
      4.089  0.0000E+00  0.7600E+00
      4.273  0.0000E+00  0.7600E+00
      4.456  0.0000E+00  0.7600E+00
      4.640  0.0000E+00  0.7600E+00
      4.824  0.0000E+00  0.7600E+00
      5.007  0.0000E+00  0.7600E+00
      5.191  0.0000E+00  0.7600E+00
      5.375  0.0000E+00  0.7600E+00
      5.558  0.2692E-01  0.7626E+00
      5.742  0.4889E-01  0.7722E+00
      5.926  0.5151E-01  0.7863E+00
      6.109  0.6755E-01  0.7955E+00
      6.293  0.0000E+00  0.8000E+00
      6.477  0.4647E-01  0.8018E+00
      6.661  0.1228E+00  0.8188E+00
      6.844  0.4451E-01  0.8396E+00
      7.028  0.1200E+00  0.8511E+00
      7.212  0.1146E+00  0.8750E+00
      7.395  0.1146E+00  0.8940E+00
      7.579  0.4769E-01  0.9176E+00
      7.763  0.0000E+00  0.9200E+00
      7.946  0.0000E+00  0.9200E+00
      8.130  0.0000E+00  0.9200E+00
      8.314  0.1818E-01  0.9214E+00
      8.497  0.5326E-01  0.9291E+00
      8.681  0.1393E+00  0.9466E+00
      8.865  0.0000E+00  0.9600E+00
      9.048  0.0000E+00  0.9600E+00
      9.232  0.0000E+00  0.9600E+00
      9.416  0.0000E+00  0.9600E+00
      9.599  0.0000E+00  0.9600E+00
      9.783  0.0000E+00  0.9600E+00
      9.967  0.0000E+00  0.9600E+00
     10.150  0.0000E+00  0.9600E+00
     10.334  0.0000E+00  0.9600E+00
     10.518  0.0000E+00  0.9600E+00
     10.701  0.0000E+00  0.9600E+00
     10.885  0.0000E+00  0.9600E+00
     11.069  0.0000E+00  0.9600E+00
     11.252  0.0000E+00  0.9600E+00
