       N       E                     dE             d eps       ncg     rms          rms(c)
DAV:   1     0.494324353999E+03    0.49432E+03   -0.28237E+04   768   0.130E+03
DAV:   2     0.547878534886E+01   -0.48885E+03   -0.46593E+03   896   0.306E+02
DAV:   3    -0.628560662385E+02   -0.68335E+02   -0.66859E+02  1072   0.983E+01
DAV:   4    -0.694705713524E+02   -0.66145E+01   -0.65538E+01  1360   0.313E+01
DAV:   5    -0.702891776669E+02   -0.81861E+00   -0.81814E+00  1208   0.743E+00    0.288E+01
RMM:   6    -0.682845964078E+02    0.20046E+01   -0.51148E+00   916   0.556E+00    0.181E+01
RMM:   7    -0.680378478492E+02    0.24675E+00   -0.31667E+00   965   0.445E+00    0.331E+00
RMM:   8    -0.679264213812E+02    0.11143E+00   -0.34583E-01   992   0.197E+00    0.646E-01
RMM:   9    -0.679261419164E+02    0.27946E-03   -0.60381E-02  1176   0.777E-01    0.428E-01
RMM:  10    -0.679281167203E+02   -0.19748E-02   -0.25673E-02  1228   0.468E-01    0.210E-01
RMM:  11    -0.679291862921E+02   -0.10696E-02   -0.12187E-02  1153   0.343E-01    0.852E-02
RMM:  12    -0.679297614620E+02   -0.57517E-03   -0.74726E-03  1140   0.256E-01    0.333E-02
RMM:  13    -0.679301756338E+02   -0.41417E-03   -0.45814E-03  1124   0.200E-01    0.275E-02
RMM:  14    -0.679304358089E+02   -0.26018E-03   -0.26941E-03  1002   0.158E-01    0.214E-02
RMM:  15    -0.679305755126E+02   -0.13970E-03   -0.16086E-03  1057   0.129E-01    0.737E-03
RMM:  16    -0.679306936372E+02   -0.11812E-03   -0.12542E-03   994   0.106E-01    0.741E-03
RMM:  17    -0.679307475671E+02   -0.53930E-04   -0.56039E-04   882   0.835E-02    0.853E-03
RMM:  18    -0.679307823112E+02   -0.34744E-04   -0.38427E-04   864   0.725E-02    0.113E-02
RMM:  19    -0.679307990761E+02   -0.16765E-04   -0.20205E-04   776   0.638E-02    0.123E-02
RMM:  20    -0.679308070368E+02   -0.79607E-05   -0.11381E-04   705   0.585E-02
   1 F= -.67930807E+02 E0= -.67930807E+02  d E =-.679308E+02
       N       E                     dE             d eps       ncg     rms          rms(c)
DAV:   1    -0.702623103830E+02   -0.23315E+01   -0.20735E+02   768   0.583E+01    0.241E+01
RMM:   2    -0.708861239867E+02   -0.62381E+00   -0.16293E+01   938   0.159E+01    0.944E+00
RMM:   3    -0.705112053715E+02    0.37492E+00   -0.13013E+00  1151   0.443E+00    0.888E+00
RMM:   4    -0.703708152196E+02    0.14039E+00   -0.84038E-01   926   0.265E+00    0.146E+00
RMM:   5    -0.703614277245E+02    0.93875E-02   -0.96676E-02  1201   0.108E+00    0.530E-01
RMM:   6    -0.703598696897E+02    0.15580E-02   -0.68113E-02   984   0.710E-01    0.370E-01
RMM:   7    -0.703591089486E+02    0.76074E-03   -0.16036E-02  1110   0.403E-01    0.164E-01
RMM:   8    -0.703598331632E+02   -0.72421E-03   -0.84887E-03  1166   0.257E-01    0.378E-02
RMM:   9    -0.703601980610E+02   -0.36490E-03   -0.42769E-03  1110   0.186E-01    0.210E-02
RMM:  10    -0.703604020016E+02   -0.20394E-03   -0.23174E-03   949   0.139E-01    0.803E-03
RMM:  11    -0.703605485976E+02   -0.14660E-03   -0.15368E-03  1025   0.111E-01    0.890E-03
RMM:  12    -0.703606187895E+02   -0.70192E-04   -0.73749E-04   914   0.845E-02    0.540E-03
RMM:  13    -0.703606652950E+02   -0.46505E-04   -0.50295E-04   919   0.701E-02    0.322E-03
RMM:  14    -0.703606860830E+02   -0.20788E-04   -0.23033E-04   753   0.573E-02    0.254E-03
RMM:  15    -0.703606956569E+02   -0.95739E-05   -0.12088E-04   653   0.509E-02
   2 F= -.70360696E+02 E0= -.70360696E+02  d E =-.242989E+01
       N       E                     dE             d eps       ncg     rms          rms(c)
DAV:   1    -0.705799053932E+02   -0.21922E+00   -0.31474E+01   880   0.226E+01    0.668E+00
RMM:   2    -0.706435136304E+02   -0.63608E-01   -0.23134E+00   910   0.605E+00    0.228E+00
RMM:   3    -0.705854911594E+02    0.58022E-01   -0.18157E-01  1110   0.167E+00    0.174E+00
RMM:   4    -0.705682111221E+02    0.17280E-01   -0.10589E-01   931   0.955E-01    0.388E-01
RMM:   5    -0.705672703458E+02    0.94078E-03   -0.13313E-02  1223   0.408E-01    0.207E-01
RMM:   6    -0.705674828593E+02   -0.21251E-03   -0.70067E-03  1040   0.238E-01    0.801E-02
RMM:   7    -0.705674766402E+02    0.62191E-05   -0.26677E-03  1060   0.155E-01    0.453E-02
RMM:   8    -0.705675812838E+02   -0.10464E-03   -0.12701E-03   944   0.101E-01    0.118E-02
RMM:   9    -0.705676461123E+02   -0.64829E-04   -0.67679E-04   924   0.758E-02    0.602E-03
RMM:  10    -0.705676704735E+02   -0.24361E-04   -0.25575E-04   751   0.560E-02    0.382E-03
RMM:  11    -0.705676799939E+02   -0.95205E-05   -0.12000E-04   660   0.489E-02
   3 F= -.70567680E+02 E0= -.70567680E+02  d E =-.263687E+01
       N       E                     dE             d eps       ncg     rms          rms(c)
DAV:   1    -0.716486849822E+02   -0.10810E+01   -0.83607E+01   768   0.380E+01    0.929E+00
RMM:   2    -0.720019120124E+02   -0.35323E+00   -0.57125E+00   936   0.968E+00    0.408E+00
RMM:   3    -0.719421021081E+02    0.59810E-01   -0.51824E-01  1188   0.281E+00    0.412E+00
RMM:   4    -0.719043615422E+02    0.37741E-01   -0.13923E-01  1005   0.123E+00    0.168E+00
RMM:   5    -0.719033165468E+02    0.10450E-02   -0.73204E-02  1018   0.850E-01    0.434E-01
RMM:   6    -0.719020173559E+02    0.12992E-02   -0.26299E-02  1095   0.487E-01    0.112E-01
RMM:   7    -0.719025359191E+02   -0.51856E-03   -0.86612E-03  1199   0.283E-01    0.803E-02
RMM:   8    -0.719029669353E+02   -0.43102E-03   -0.46471E-03  1091   0.196E-01    0.152E-02
RMM:   9    -0.719031810082E+02   -0.21407E-03   -0.22233E-03  1016   0.141E-01    0.115E-02
RMM:  10    -0.719033010296E+02   -0.12002E-03   -0.12706E-03  1043   0.108E-01    0.877E-03
RMM:  11    -0.719033692872E+02   -0.68258E-04   -0.71550E-04   952   0.838E-02    0.916E-03
RMM:  12    -0.719034059016E+02   -0.36614E-04   -0.36584E-04   842   0.667E-02    0.137E-02
RMM:  13    -0.719034125445E+02   -0.66429E-05   -0.12866E-04   694   0.572E-02
   4 F= -.71903413E+02 E0= -.71903413E+02  d E =-.133573E+01
       N       E                     dE             d eps       ncg     rms          rms(c)
DAV:   1    -0.713401044500E+02    0.56330E+00   -0.33022E+02   768   0.748E+01    0.305E+01
RMM:   2    -0.731220746655E+02   -0.17820E+01   -0.26031E+01   948   0.200E+01    0.111E+01
RMM:   3    -0.728554538876E+02    0.26662E+00   -0.25173E+00  1190   0.605E+00    0.111E+01
RMM:   4    -0.726952525438E+02    0.16020E+00   -0.70295E-01   984   0.272E+00    0.413E+00
RMM:   5    -0.726953169723E+02   -0.64429E-04   -0.25510E-01  1052   0.162E+00    0.735E-01
RMM:   6    -0.726894474710E+02    0.58695E-02   -0.96228E-02  1076   0.952E-01    0.229E-01
RMM:   7    -0.726913544618E+02   -0.19070E-02   -0.32562E-02  1212   0.547E-01    0.198E-01
RMM:   8    -0.726927860371E+02   -0.14316E-02   -0.15729E-02  1207   0.361E-01    0.338E-02
RMM:   9    -0.726934866407E+02   -0.70060E-03   -0.73326E-03  1126   0.251E-01    0.377E-02
RMM:  10    -0.726938259557E+02   -0.33931E-03   -0.36188E-03  1103   0.183E-01    0.127E-02
RMM:  11    -0.726940139373E+02   -0.18798E-03   -0.20078E-03  1063   0.138E-01    0.865E-03
RMM:  12    -0.726941136057E+02   -0.99668E-04   -0.10567E-03  1044   0.105E-01    0.507E-03
RMM:  13    -0.726941649595E+02   -0.51354E-04   -0.55661E-04   907   0.829E-02    0.219E-03
RMM:  14    -0.726941933276E+02   -0.28368E-04   -0.31906E-04   854   0.697E-02    0.277E-03
RMM:  15    -0.726942044155E+02   -0.11088E-04   -0.13820E-04   707   0.602E-02
   5 F= -.72694204E+02 E0= -.72694204E+02  d E =-.212652E+01
       N       E                     dE             d eps       ncg     rms          rms(c)
DAV:   1    -0.733431857602E+02   -0.64899E+00   -0.99460E+01   768   0.421E+01    0.105E+01
RMM:   2    -0.736592960316E+02   -0.31611E+00   -0.61306E+00   952   0.101E+01    0.207E+00
RMM:   3    -0.736017364307E+02    0.57560E-01   -0.49953E-01  1197   0.279E+00    0.215E+00
RMM:   4    -0.735830175701E+02    0.18719E-01   -0.14673E-01  1070   0.119E+00    0.762E-01
RMM:   5    -0.735864173936E+02   -0.33998E-02   -0.51038E-02  1206   0.685E-01    0.347E-01
RMM:   6    -0.735877933181E+02   -0.13759E-02   -0.32615E-02  1044   0.525E-01    0.158E-01
RMM:   7    -0.735874075376E+02    0.38578E-03   -0.13653E-02  1102   0.340E-01    0.665E-02
RMM:   8    -0.735879355202E+02   -0.52798E-03   -0.60328E-03  1125   0.226E-01    0.363E-02
RMM:   9    -0.735881865154E+02   -0.25100E-03   -0.26951E-03  1114   0.157E-01    0.149E-02
RMM:  10    -0.735882976599E+02   -0.11114E-03   -0.11982E-03  1078   0.109E-01    0.742E-03
RMM:  11    -0.735883595125E+02   -0.61853E-04   -0.65096E-04   930   0.817E-02    0.642E-03
RMM:  12    -0.735883799438E+02   -0.20431E-04   -0.22307E-04   825   0.640E-02    0.580E-03
RMM:  13    -0.735883858092E+02   -0.58654E-05   -0.87775E-05   647   0.556E-02
   6 F= -.73588386E+02 E0= -.73588386E+02  d E =-.894181E+00
       N       E                     dE             d eps       ncg     rms          rms(c)
DAV:   1    -0.734607784838E+02    0.12760E+00   -0.18842E+02   768   0.587E+01    0.173E+01
RMM:   2    -0.741362025774E+02   -0.67542E+00   -0.12450E+01   954   0.141E+01    0.317E+00
RMM:   3    -0.739998076566E+02    0.13639E+00   -0.99864E-01  1201   0.397E+00    0.356E+00
RMM:   4    -0.739653833687E+02    0.34424E-01   -0.30744E-01  1065   0.176E+00    0.114E+00
RMM:   5    -0.739722710660E+02   -0.68877E-02   -0.98106E-02  1222   0.966E-01    0.535E-01
RMM:   6    -0.739751445907E+02   -0.28735E-02   -0.68540E-02  1026   0.749E-01    0.258E-01
RMM:   7    -0.739735261004E+02    0.16185E-02   -0.24215E-02  1080   0.461E-01    0.822E-02
RMM:   8    -0.739745433473E+02   -0.10172E-02   -0.11201E-02  1181   0.297E-01    0.480E-02
RMM:   9    -0.739749044323E+02   -0.36108E-03   -0.41315E-03  1160   0.191E-01    0.217E-02
RMM:  10    -0.739750663168E+02   -0.16188E-03   -0.18316E-03  1112   0.127E-01    0.122E-02
RMM:  11    -0.739751414222E+02   -0.75105E-04   -0.78750E-04  1022   0.882E-02    0.973E-03
RMM:  12    -0.739751625772E+02   -0.21155E-04   -0.24163E-04   811   0.637E-02    0.693E-03
RMM:  13    -0.739751692527E+02   -0.66755E-05   -0.94797E-05   699   0.541E-02
   7 F= -.73975169E+02 E0= -.73975169E+02  d E =-.128096E+01
       N       E                     dE             d eps       ncg     rms          rms(c)
DAV:   1    -0.743894789810E+02   -0.41432E+00   -0.11896E+02   768   0.472E+01    0.158E+01
RMM:   2    -0.746988532171E+02   -0.30937E+00   -0.82161E+00   963   0.116E+01    0.338E+00
RMM:   3    -0.745495404031E+02    0.14931E+00   -0.72497E-01  1186   0.333E+00    0.400E+00
RMM:   4    -0.745142228566E+02    0.35318E-01   -0.24039E-01  1112   0.154E+00    0.168E+00
RMM:   5    -0.745169224924E+02   -0.26996E-02   -0.10053E-01  1223   0.978E-01    0.329E-01
RMM:   6    -0.745189231365E+02   -0.20006E-02   -0.35902E-02  1258   0.578E-01    0.105E-01
RMM:   7    -0.745200383664E+02   -0.11152E-02   -0.14666E-02  1219   0.351E-01    0.572E-02
RMM:   8    -0.745205492414E+02   -0.51088E-03   -0.56069E-03  1181   0.229E-01    0.307E-02
RMM:   9    -0.745207308831E+02   -0.18164E-03   -0.24155E-03  1186   0.149E-01    0.106E-02
RMM:  10    -0.745208280277E+02   -0.97145E-04   -0.10185E-03  1139   0.989E-02    0.606E-03
RMM:  11    -0.745208464225E+02   -0.18395E-04   -0.20060E-04   773   0.646E-02    0.231E-03
RMM:  12    -0.745208510689E+02   -0.46463E-05   -0.73634E-05   646   0.551E-02
   8 F= -.74520851E+02 E0= -.74520851E+02  d E =-.545682E+00
       N       E                     dE             d eps       ncg     rms          rms(c)
DAV:   1    -0.745209269893E+02   -0.80567E-04   -0.66420E-03   824   0.346E-01    0.875E-02
RMM:   2    -0.745209442430E+02   -0.17254E-04   -0.41609E-04   986   0.874E-02    0.186E-02
RMM:   3    -0.745209357917E+02    0.84513E-05   -0.24687E-05   533   0.269E-02
   9 F= -.74520936E+02 E0= -.74520936E+02  d E =-.545767E+00
       N       E                     dE             d eps       ncg     rms          rms(c)
DAV:   1    -0.747644289573E+02   -0.24348E+00   -0.24274E+01   768   0.202E+01    0.437E+00
RMM:   2    -0.748602928349E+02   -0.95864E-01   -0.16924E+00   949   0.511E+00    0.128E+00
RMM:   3    -0.748400640740E+02    0.20229E-01   -0.14486E-01  1200   0.147E+00    0.156E+00
RMM:   4    -0.748377718495E+02    0.22922E-02   -0.36747E-02  1205   0.581E-01    0.959E-01
RMM:   5    -0.748372931805E+02    0.47867E-03   -0.17883E-02  1135   0.405E-01    0.111E-01
RMM:   6    -0.748377871543E+02   -0.49397E-03   -0.68263E-03  1195   0.233E-01    0.412E-02
RMM:   7    -0.748379888052E+02   -0.20165E-03   -0.23970E-03  1148   0.139E-01    0.239E-02
RMM:   8    -0.748380616125E+02   -0.72807E-04   -0.80410E-04  1063   0.846E-02    0.136E-02
RMM:   9    -0.748380649530E+02   -0.33404E-05   -0.72542E-05   662   0.565E-02
  10 F= -.74838065E+02 E0= -.74838065E+02  d E =-.317129E+00
       N       E                     dE             d eps       ncg     rms          rms(c)
DAV:   1    -0.748665507449E+02   -0.28489E-01   -0.17244E+01   768   0.170E+01    0.347E+00
RMM:   2    -0.749334616960E+02   -0.66911E-01   -0.11566E+00   950   0.427E+00    0.938E-01
RMM:   3    -0.749219201563E+02    0.11542E-01   -0.10386E-01  1187   0.124E+00    0.108E+00
RMM:   4    -0.749204199122E+02    0.15002E-02   -0.28861E-02  1180   0.519E-01    0.626E-01
RMM:   5    -0.749205561932E+02   -0.13628E-03   -0.12479E-02  1182   0.337E-01    0.126E-01
RMM:   6    -0.749209510711E+02   -0.39488E-03   -0.48645E-03  1186   0.193E-01    0.260E-02
RMM:   7    -0.749211053678E+02   -0.15430E-03   -0.16711E-03  1087   0.116E-01    0.176E-02
RMM:   8    -0.749211437669E+02   -0.38399E-04   -0.43959E-04   950   0.713E-02    0.856E-03
RMM:   9    -0.749211486208E+02   -0.48539E-05   -0.87088E-05   673   0.529E-02
  11 F= -.74921149E+02 E0= -.74921149E+02  d E =-.400213E+00
       N       E                     dE             d eps       ncg     rms          rms(c)
DAV:   1    -0.752981529443E+02   -0.37701E+00   -0.31253E+01   768   0.246E+01    0.492E+00
RMM:   2    -0.752645515538E+02    0.33601E-01   -0.17405E+00   951   0.549E+00    0.144E+00
RMM:   3    -0.752100621785E+02    0.54489E-01   -0.17542E-01  1078   0.163E+00    0.108E+00
RMM:   4    -0.752021191801E+02    0.79430E-02   -0.59605E-02  1102   0.768E-01    0.582E-01
RMM:   5    -0.752024620809E+02   -0.34290E-03   -0.19831E-02  1183   0.454E-01    0.183E-01
RMM:   6    -0.752031789358E+02   -0.71685E-03   -0.82906E-03  1246   0.260E-01    0.641E-02
RMM:   7    -0.752034244366E+02   -0.24550E-03   -0.28034E-03  1149   0.152E-01    0.251E-02
RMM:   8    -0.752035181921E+02   -0.93755E-04   -0.10185E-03  1065   0.970E-02    0.743E-03
RMM:   9    -0.752035437608E+02   -0.25569E-04   -0.29755E-04   838   0.679E-02    0.428E-03
RMM:  10    -0.752035532735E+02   -0.95127E-05   -0.12702E-04   725   0.570E-02
  12 F= -.75203553E+02 E0= -.75203553E+02  d E =-.282405E+00
       N       E                     dE             d eps       ncg     rms          rms(c)
DAV:   1    -0.757049611727E+02   -0.50142E+00   -0.10121E+02   768   0.450E+01    0.106E+01
RMM:   2    -0.756102130657E+02    0.94748E-01   -0.58206E+00   951   0.996E+00    0.270E+00
RMM:   3    -0.754403620191E+02    0.16985E+00   -0.55685E-01  1100   0.287E+00    0.241E+00
RMM:   4    -0.754104130286E+02    0.29949E-01   -0.18812E-01  1123   0.136E+00    0.122E+00
RMM:   5    -0.754106579611E+02   -0.24493E-03   -0.64067E-02  1198   0.807E-01    0.381E-01
RMM:   6    -0.754125690459E+02   -0.19111E-02   -0.24172E-02  1257   0.466E-01    0.106E-01
RMM:   7    -0.754133566722E+02   -0.78763E-03   -0.94775E-03  1233   0.288E-01    0.449E-02
RMM:   8    -0.754137142138E+02   -0.35754E-03   -0.40004E-03  1183   0.195E-01    0.164E-02
RMM:   9    -0.754138833016E+02   -0.16909E-03   -0.19549E-03  1131   0.137E-01    0.780E-03
RMM:  10    -0.754139743015E+02   -0.91000E-04   -0.99006E-04  1063   0.101E-01    0.579E-03
RMM:  11    -0.754140137322E+02   -0.39431E-04   -0.42569E-04   914   0.760E-02    0.695E-03
RMM:  12    -0.754140250986E+02   -0.11366E-04   -0.14472E-04   718   0.619E-02
  13 F= -.75414025E+02 E0= -.75414025E+02  d E =-.492876E+00
       N       E                     dE             d eps       ncg     rms          rms(c)
DAV:   1    -0.754626904204E+02   -0.48677E-01   -0.38105E+01   768   0.298E+01    0.445E+00
RMM:   2    -0.755914159116E+02   -0.12873E+00   -0.16910E+00   965   0.577E+00    0.935E-01
RMM:   3    -0.755754906491E+02    0.15925E-01   -0.18806E-01  1215   0.176E+00    0.835E-01
RMM:   4    -0.755720894899E+02    0.34012E-02   -0.66222E-02  1181   0.811E-01    0.330E-01
RMM:   5    -0.755736754496E+02   -0.15860E-02   -0.24383E-02  1238   0.490E-01    0.147E-01
RMM:   6    -0.755746228704E+02   -0.94742E-03   -0.11431E-02  1264   0.331E-01    0.344E-02
RMM:   7    -0.755750893789E+02   -0.46651E-03   -0.56302E-03  1179   0.229E-01    0.215E-02
RMM:   8    -0.755753710852E+02   -0.28171E-03   -0.31669E-03  1152   0.169E-01    0.117E-02
RMM:   9    -0.755755242219E+02   -0.15314E-03   -0.16257E-03  1101   0.124E-01    0.561E-03
RMM:  10    -0.755756003741E+02   -0.76152E-04   -0.82510E-04  1033   0.931E-02    0.435E-03
RMM:  11    -0.755756391883E+02   -0.38814E-04   -0.42660E-04   895   0.736E-02    0.277E-03
RMM:  12    -0.755756526742E+02   -0.13486E-04   -0.16742E-04   757   0.618E-02
  14 F= -.75575653E+02 E0= -.75575653E+02  d E =-.161628E+00
       N       E                     dE             d eps       ncg     rms          rms(c)
DAV:   1    -0.755645403408E+02    0.11099E-01   -0.11428E+01   784   0.163E+01    0.231E+00
RMM:   2    -0.756027780643E+02   -0.38238E-01   -0.49621E-01   966   0.315E+00    0.526E-01
RMM:   3    -0.755980460406E+02    0.47320E-02   -0.53446E-02  1217   0.954E-01    0.440E-01
RMM:   4    -0.755969711694E+02    0.10749E-02   -0.21091E-02  1170   0.436E-01    0.147E-01
RMM:   5    -0.755975357571E+02   -0.56459E-03   -0.79758E-03  1280   0.272E-01    0.732E-02
RMM:   6    -0.755978611379E+02   -0.32538E-03   -0.38185E-03  1166   0.185E-01    0.227E-02
RMM:   7    -0.755980145438E+02   -0.15341E-03   -0.18341E-03  1158   0.133E-01    0.136E-02
RMM:   8    -0.755981044139E+02   -0.89870E-04   -0.10286E-03  1016   0.100E-01    0.760E-03
RMM:   9    -0.755981512526E+02   -0.46839E-04   -0.50629E-04   975   0.768E-02    0.623E-03
RMM:  10    -0.755981672696E+02   -0.16017E-04   -0.19586E-04   771   0.618E-02
  15 F= -.75598167E+02 E0= -.75598167E+02  d E =-.184142E+00
       N       E                     dE             d eps       ncg     rms          rms(c)
DAV:   1    -0.756324146828E+02   -0.34263E-01   -0.28501E+01   768   0.267E+01    0.183E+00
RMM:   2    -0.757147422774E+02   -0.82328E-01   -0.95483E-01  1012   0.447E+00    0.652E-01
RMM:   3    -0.757238881803E+02   -0.91459E-02   -0.16550E-01  1250   0.158E+00    0.568E-01
RMM:   4    -0.757237510365E+02    0.13714E-03   -0.48337E-02  1206   0.766E-01    0.227E-01
RMM:   5    -0.757253017410E+02   -0.15507E-02   -0.20886E-02  1266   0.480E-01    0.872E-02
RMM:   6    -0.757260878686E+02   -0.78613E-03   -0.10015E-02  1277   0.333E-01    0.322E-02
RMM:   7    -0.757265371102E+02   -0.44924E-03   -0.51883E-03  1224   0.234E-01    0.211E-02
RMM:   8    -0.757268284390E+02   -0.29133E-03   -0.30911E-03  1181   0.175E-01    0.818E-03
RMM:   9    -0.757269719587E+02   -0.14352E-03   -0.15097E-03  1186   0.128E-01    0.567E-03
RMM:  10    -0.757270570164E+02   -0.85058E-04   -0.90084E-04  1017   0.978E-02    0.491E-03
RMM:  11    -0.757270951638E+02   -0.38147E-04   -0.41233E-04   953   0.768E-02    0.306E-03
RMM:  12    -0.757271125770E+02   -0.17413E-04   -0.20853E-04   831   0.649E-02    0.180E-03
RMM:  13    -0.757271183079E+02   -0.57310E-05   -0.91151E-05   720   0.584E-02
  16 F= -.75727118E+02 E0= -.75727118E+02  d E =-.128951E+00
       N       E                     dE             d eps       ncg     rms          rms(c)
DAV:   1    -0.747801213051E+02    0.94699E+00   -0.21839E+02   768   0.741E+01    0.623E+00
RMM:   2    -0.756841934810E+02   -0.90407E+00   -0.10405E+01   985   0.134E+01    0.223E+00
RMM:   3    -0.758552221491E+02   -0.17103E+00   -0.27382E+00  1245   0.528E+00    0.218E+00
RMM:   4    -0.758715521330E+02   -0.16330E-01   -0.56271E-01  1223   0.252E+00    0.117E+00
RMM:   5    -0.758753822388E+02   -0.38301E-02   -0.14720E-01  1213   0.144E+00    0.274E-01
RMM:   6    -0.758814503111E+02   -0.60681E-02   -0.74248E-02  1290   0.951E-01    0.136E-01
RMM:   7    -0.758849782524E+02   -0.35279E-02   -0.37547E-02  1250   0.622E-01    0.760E-02
RMM:   8    -0.758864038168E+02   -0.14256E-02   -0.14886E-02  1315   0.424E-01    0.325E-02
RMM:   9    -0.758873287831E+02   -0.92497E-03   -0.97526E-03  1249   0.309E-01    0.146E-02
RMM:  10    -0.758877872705E+02   -0.45849E-03   -0.47256E-03  1204   0.227E-01    0.883E-03
RMM:  11    -0.758880754164E+02   -0.28815E-03   -0.30070E-03  1179   0.175E-01    0.882E-03
RMM:  12    -0.758882297871E+02   -0.15437E-03   -0.16087E-03  1154   0.135E-01    0.480E-03
RMM:  13    -0.758883244728E+02   -0.94686E-04   -0.99249E-04  1061   0.106E-01    0.199E-03
RMM:  14    -0.758883722822E+02   -0.47809E-04   -0.50722E-04   917   0.861E-02    0.137E-03
RMM:  15    -0.758884010391E+02   -0.28757E-04   -0.32392E-04   897   0.742E-02    0.815E-04
RMM:  16    -0.758884137162E+02   -0.12677E-04   -0.15819E-04   780   0.657E-02
  17 F= -.75888414E+02 E0= -.75888414E+02  d E =-.290246E+00
       N       E                     dE             d eps       ncg     rms          rms(c)
DAV:   1    -0.758768726657E+02    0.11528E-01   -0.50429E+01   768   0.360E+01    0.320E+00
RMM:   2    -0.760108946046E+02   -0.13402E+00   -0.16852E+00  1016   0.580E+00    0.904E-01
RMM:   3    -0.760284939646E+02   -0.17599E-01   -0.32741E-01  1252   0.212E+00    0.702E-01
RMM:   4    -0.760276943700E+02    0.79959E-03   -0.80043E-02  1210   0.106E+00    0.253E-01
RMM:   5    -0.760300997335E+02   -0.24054E-02   -0.34502E-02  1264   0.662E-01    0.939E-02
RMM:   6    -0.760315701356E+02   -0.14704E-02   -0.17352E-02  1314   0.466E-01    0.455E-02
RMM:   7    -0.760324237454E+02   -0.85361E-03   -0.93442E-03  1269   0.334E-01    0.271E-02
RMM:   8    -0.760329851838E+02   -0.56144E-03   -0.58928E-03  1212   0.253E-01    0.106E-02
RMM:   9    -0.760332760928E+02   -0.29091E-03   -0.30200E-03  1214   0.190E-01    0.777E-03
RMM:  10    -0.760334752918E+02   -0.19920E-03   -0.20823E-03  1198   0.149E-01    0.408E-03
RMM:  11    -0.760335771381E+02   -0.10185E-03   -0.10455E-03  1125   0.115E-01    0.330E-03
RMM:  12    -0.760336383037E+02   -0.61166E-04   -0.64837E-04  1024   0.924E-02    0.384E-03
RMM:  13    -0.760336721277E+02   -0.33824E-04   -0.37086E-04   958   0.773E-02    0.222E-03
RMM:  14    -0.760336897031E+02   -0.17575E-04   -0.20529E-04   841   0.668E-02    0.277E-03
RMM:  15    -0.760336943445E+02   -0.46414E-05   -0.78574E-05   683   0.610E-02
  18 F= -.76033694E+02 E0= -.76033694E+02  d E =-.145281E+00
       N       E                     dE             d eps       ncg     rms          rms(c)
DAV:   1    -0.758119588984E+02    0.22173E+00   -0.84426E+01   768   0.467E+01    0.406E+00
RMM:   2    -0.760566729707E+02   -0.24471E+00   -0.30505E+00  1012   0.761E+00    0.118E+00
RMM:   3    -0.760966055220E+02   -0.39933E-01   -0.66693E-01  1256   0.286E+00    0.933E-01
RMM:   4    -0.760962002375E+02    0.40528E-03   -0.14516E-01  1213   0.142E+00    0.372E-01
RMM:   5    -0.760995264074E+02   -0.33262E-02   -0.55214E-02  1265   0.870E-01    0.122E-01
RMM:   6    -0.761019032133E+02   -0.23768E-02   -0.28489E-02  1312   0.605E-01    0.593E-02
RMM:   7    -0.761033763146E+02   -0.14731E-02   -0.15876E-02  1270   0.431E-01    0.372E-02
RMM:   8    -0.761042657291E+02   -0.88941E-03   -0.92980E-03  1241   0.322E-01    0.156E-02
RMM:   9    -0.761047482799E+02   -0.48255E-03   -0.50476E-03  1209   0.243E-01    0.101E-02
RMM:  10    -0.761050835293E+02   -0.33525E-03   -0.35025E-03  1212   0.192E-01    0.436E-03
RMM:  11    -0.761052646483E+02   -0.18112E-03   -0.18526E-03  1162   0.148E-01    0.316E-03
RMM:  12    -0.761053773878E+02   -0.11274E-03   -0.11758E-03  1124   0.117E-01    0.328E-03
RMM:  13    -0.761054428014E+02   -0.65414E-04   -0.68575E-04  1023   0.949E-02    0.225E-03
RMM:  14    -0.761054798450E+02   -0.37044E-04   -0.39987E-04   933   0.788E-02    0.196E-03
RMM:  15    -0.761054990862E+02   -0.19241E-04   -0.22376E-04   833   0.687E-02    0.218E-03
RMM:  16    -0.761055080263E+02   -0.89401E-05   -0.12189E-04   744   0.627E-02
  19 F= -.76105508E+02 E0= -.76105508E+02  d E =-.217094E+00
       N       E                     dE             d eps       ncg     rms          rms(c)
DAV:   1    -0.760986212695E+02    0.68778E-02   -0.55199E+01   768   0.377E+01    0.227E+00
RMM:   2    -0.762410438551E+02   -0.14242E+00   -0.18140E+00  1025   0.593E+00    0.817E-01
RMM:   3    -0.762567856636E+02   -0.15742E-01   -0.31201E-01  1246   0.212E+00    0.621E-01
RMM:   4    -0.762577461680E+02   -0.96050E-03   -0.87467E-02  1232   0.106E+00    0.256E-01
RMM:   5    -0.762612053154E+02   -0.34591E-02   -0.43031E-02  1251   0.676E-01    0.109E-01
RMM:   6    -0.762630005644E+02   -0.17952E-02   -0.20145E-02  1295   0.476E-01    0.331E-02
RMM:   7    -0.762638941040E+02   -0.89354E-03   -0.94983E-03  1255   0.333E-01    0.220E-02
RMM:   8    -0.762645237096E+02   -0.62961E-03   -0.65604E-03  1199   0.257E-01    0.121E-02
RMM:   9    -0.762648206304E+02   -0.29692E-03   -0.30588E-03  1205   0.190E-01    0.618E-03
RMM:  10    -0.762650338199E+02   -0.21319E-03   -0.22373E-03  1163   0.151E-01    0.609E-03
RMM:  11    -0.762651424602E+02   -0.10864E-03   -0.11247E-03  1110   0.117E-01    0.297E-03
RMM:  12    -0.762652127588E+02   -0.70299E-04   -0.74154E-04  1005   0.950E-02    0.119E-03
RMM:  13    -0.762652499585E+02   -0.37200E-04   -0.39863E-04   946   0.784E-02    0.229E-03
RMM:  14    -0.762652694633E+02   -0.19505E-04   -0.22573E-04   843   0.678E-02    0.168E-03
RMM:  15    -0.762652779116E+02   -0.84483E-05   -0.11650E-04   761   0.617E-02
  20 F= -.76265278E+02 E0= -.76265278E+02  d E =-.159770E+00
       N       E                     dE             d eps       ncg     rms          rms(c)
DAV:   1    -0.744097654900E+02    0.18555E+01   -0.37417E+02   768   0.995E+01    0.961E+00
RMM:   2    -0.758270201854E+02   -0.14173E+01   -0.18282E+01  1000   0.174E+01    0.258E+00
RMM:   3    -0.762968179335E+02   -0.46980E+00   -0.57199E+00  1243   0.696E+00    0.247E+00
RMM:   4    -0.763855017856E+02   -0.88684E-01   -0.14483E+00  1233   0.362E+00    0.122E+00
RMM:   5    -0.763958991999E+02   -0.10397E-01   -0.23599E-01  1237   0.190E+00    0.501E-01
RMM:   6    -0.764067213436E+02   -0.10822E-01   -0.13314E-01  1288   0.130E+00    0.108E-01
RMM:   7    -0.764112444471E+02   -0.45231E-02   -0.47587E-02  1275   0.784E-01    0.617E-02
RMM:   8    -0.764134568474E+02   -0.22124E-02   -0.22606E-02  1323   0.536E-01    0.473E-02
RMM:   9    -0.764145532484E+02   -0.10964E-02   -0.11688E-02  1278   0.373E-01    0.184E-02
RMM:  10    -0.764152648458E+02   -0.71160E-03   -0.73586E-03  1225   0.276E-01    0.132E-02
RMM:  11    -0.764156427899E+02   -0.37794E-03   -0.38796E-03  1203   0.207E-01    0.103E-02
RMM:  12    -0.764158878050E+02   -0.24502E-03   -0.25476E-03  1185   0.162E-01    0.785E-03
RMM:  13    -0.764160157645E+02   -0.12796E-03   -0.13150E-03  1076   0.125E-01    0.498E-03
RMM:  14    -0.764160960690E+02   -0.80305E-04   -0.84804E-04  1049   0.101E-01    0.237E-03
RMM:  15    -0.764161385371E+02   -0.42468E-04   -0.44877E-04   919   0.831E-02    0.109E-03
RMM:  16    -0.764161622247E+02   -0.23688E-04   -0.26702E-04   866   0.718E-02    0.957E-04
RMM:  17    -0.764161727005E+02   -0.10476E-04   -0.13535E-04   782   0.644E-02
  21 F= -.76416173E+02 E0= -.76416173E+02  d E =-.310665E+00
       N       E                     dE             d eps       ncg     rms          rms(c)
DAV:   1    -0.764027355677E+02    0.13427E-01   -0.36032E+01   768   0.307E+01    0.259E+00
RMM:   2    -0.764960668391E+02   -0.93331E-01   -0.12492E+00  1016   0.502E+00    0.866E-01
RMM:   3    -0.765003520728E+02   -0.42852E-02   -0.20387E-01  1233   0.178E+00    0.653E-01
RMM:   4    -0.764993402020E+02    0.10119E-02   -0.74217E-02  1197   0.938E-01    0.186E-01
RMM:   5    -0.765013061848E+02   -0.19660E-02   -0.27996E-02  1302   0.573E-01    0.873E-02
RMM:   6    -0.765025653148E+02   -0.12591E-02   -0.15122E-02  1288   0.402E-01    0.340E-02
RMM:   7    -0.765032011625E+02   -0.63585E-03   -0.68957E-03  1238   0.285E-01    0.201E-02
RMM:   8    -0.765036280785E+02   -0.42692E-03   -0.45632E-03  1208   0.219E-01    0.764E-03
RMM:   9    -0.765038602479E+02   -0.23217E-03   -0.24102E-03  1198   0.165E-01    0.551E-03
RMM:  10    -0.765040078487E+02   -0.14760E-03   -0.15391E-03  1184   0.128E-01    0.227E-03
RMM:  11    -0.765040844776E+02   -0.76629E-04   -0.78512E-04  1034   0.981E-02    0.171E-03
RMM:  12    -0.765041262083E+02   -0.41731E-04   -0.44776E-04   973   0.793E-02    0.125E-03
RMM:  13    -0.765041468197E+02   -0.20611E-04   -0.23194E-04   851   0.672E-02    0.184E-03
RMM:  14    -0.765041547640E+02   -0.79443E-05   -0.11000E-04   745   0.602E-02
  22 F= -.76504155E+02 E0= -.76504155E+02  d E =-.879821E-01
       N       E                     dE             d eps       ncg     rms          rms(c)
DAV:   1    -0.764526080505E+02    0.51539E-01   -0.27236E+01   768   0.267E+01    0.224E+00
RMM:   2    -0.765204569079E+02   -0.67849E-01   -0.91207E-01  1017   0.434E+00    0.730E-01
RMM:   3    -0.765241148664E+02   -0.36580E-02   -0.14587E-01  1236   0.152E+00    0.552E-01
RMM:   4    -0.765233383013E+02    0.77657E-03   -0.56208E-02  1199   0.800E-01    0.152E-01
RMM:   5    -0.765247751418E+02   -0.14368E-02   -0.20862E-02  1304   0.492E-01    0.751E-02
RMM:   6    -0.765257276233E+02   -0.95248E-03   -0.11458E-02  1292   0.347E-01    0.288E-02
RMM:   7    -0.765262030384E+02   -0.47542E-03   -0.51248E-03  1218   0.246E-01    0.173E-02
RMM:   8    -0.765265142569E+02   -0.31122E-03   -0.33400E-03  1213   0.190E-01    0.648E-03
RMM:   9    -0.765266851509E+02   -0.17089E-03   -0.17820E-03  1204   0.143E-01    0.457E-03
RMM:  10    -0.765267914866E+02   -0.10634E-03   -0.11101E-03  1117   0.111E-01    0.184E-03
RMM:  11    -0.765268454596E+02   -0.53973E-04   -0.56078E-04  1008   0.863E-02    0.143E-03
RMM:  12    -0.765268732471E+02   -0.27788E-04   -0.30531E-04   918   0.711E-02    0.106E-03
RMM:  13    -0.765268837030E+02   -0.10456E-04   -0.13252E-04   769   0.619E-02
  23 F= -.76526884E+02 E0= -.76526884E+02  d E =-.110711E+00
       N       E                     dE             d eps       ncg     rms          rms(c)
DAV:   1    -0.765609527865E+02   -0.34080E-01   -0.10322E+00   952   0.484E+00    0.797E-01
RMM:   2    -0.765636848548E+02   -0.27321E-02   -0.56765E-02   960   0.974E-01    0.301E-01
RMM:   3    -0.765626736119E+02    0.10112E-02   -0.64259E-03  1221   0.314E-01    0.221E-01
RMM:   4    -0.765625022785E+02    0.17133E-03   -0.19745E-03  1155   0.143E-01    0.521E-02
RMM:   5    -0.765625258855E+02   -0.23607E-04   -0.54968E-04  1117   0.812E-02    0.286E-02
RMM:   6    -0.765625387261E+02   -0.12841E-04   -0.21034E-04   845   0.578E-02    0.863E-03
RMM:   7    -0.765625418280E+02   -0.31019E-05   -0.69102E-05   711   0.482E-02
  24 F= -.76562542E+02 E0= -.76562542E+02  d E =-.356581E-01
       N       E                     dE             d eps       ncg     rms          rms(c)
DAV:   1    -0.765839877745E+02   -0.21449E-01   -0.41759E+00   784   0.974E+00    0.158E+00
RMM:   2    -0.765961247453E+02   -0.12137E-01   -0.24147E-01   964   0.204E+00    0.615E-01
RMM:   3    -0.765928027352E+02    0.33220E-02   -0.29917E-02  1245   0.664E-01    0.473E-01
RMM:   4    -0.765919734830E+02    0.82925E-03   -0.91775E-03  1170   0.308E-01    0.108E-01
RMM:   5    -0.765920820144E+02   -0.10853E-03   -0.25508E-03  1270   0.176E-01    0.600E-02
RMM:   6    -0.765921745726E+02   -0.92558E-04   -0.13628E-03  1155   0.123E-01    0.238E-02
RMM:   7    -0.765922278886E+02   -0.53316E-04   -0.66807E-04  1048   0.892E-02    0.951E-03
RMM:   8    -0.765922636718E+02   -0.35783E-04   -0.40548E-04  1022   0.707E-02    0.622E-03
RMM:   9    -0.765922752560E+02   -0.11584E-04   -0.13942E-04   743   0.565E-02
  25 F= -.76592275E+02 E0= -.76592275E+02  d E =-.653916E-01
       N       E                     dE             d eps       ncg     rms          rms(c)
DAV:   1    -0.766154768884E+02   -0.23213E-01   -0.19989E+00   784   0.676E+00    0.769E-01
RMM:   2    -0.766220831460E+02   -0.66063E-02   -0.92665E-02   970   0.131E+00    0.250E-01
RMM:   3    -0.766214464138E+02    0.63673E-03   -0.11909E-02  1205   0.432E-01    0.212E-01
RMM:   4    -0.766212479938E+02    0.19842E-03   -0.52064E-03  1116   0.226E-01    0.454E-02
RMM:   5    -0.766213496426E+02   -0.10165E-03   -0.16517E-03  1208   0.135E-01    0.278E-02
RMM:   6    -0.766214109877E+02   -0.61345E-04   -0.94763E-04  1133   0.969E-02    0.116E-02
RMM:   7    -0.766214386190E+02   -0.27631E-04   -0.39489E-04   979   0.701E-02    0.409E-03
RMM:   8    -0.766214587400E+02   -0.20121E-04   -0.23288E-04   830   0.579E-02    0.506E-03
RMM:   9    -0.766214587116E+02    0.28454E-07   -0.29374E-05   573   0.487E-02
  26 F= -.76621459E+02 E0= -.76621459E+02  d E =-.291835E-01
       N       E                     dE             d eps       ncg     rms          rms(c)
DAV:   1    -0.766125266144E+02    0.89321E-02   -0.14089E+01   768   0.180E+01    0.213E+00
RMM:   2    -0.766583605709E+02   -0.45834E-01   -0.64920E-01   972   0.348E+00    0.658E-01
RMM:   3    -0.766539160183E+02    0.44446E-02   -0.81496E-02  1238   0.113E+00    0.561E-01
RMM:   4    -0.766523977423E+02    0.15183E-02   -0.33992E-02  1156   0.561E-01    0.129E-01
RMM:   5    -0.766530384792E+02   -0.64074E-03   -0.10398E-02  1315   0.332E-01    0.759E-02
RMM:   6    -0.766534179567E+02   -0.37948E-03   -0.59111E-03  1168   0.238E-01    0.315E-02
RMM:   7    -0.766536051726E+02   -0.18722E-03   -0.26688E-03  1165   0.171E-01    0.129E-02
RMM:   8    -0.766537782966E+02   -0.17312E-03   -0.18678E-03  1079   0.131E-01    0.807E-03
RMM:   9    -0.766538570348E+02   -0.78738E-04   -0.80933E-04  1087   0.973E-02    0.641E-03
RMM:  10    -0.766538953304E+02   -0.38296E-04   -0.42199E-04   944   0.762E-02    0.193E-03
RMM:  11    -0.766539153236E+02   -0.19993E-04   -0.22909E-04   835   0.640E-02    0.141E-03
RMM:  12    -0.766539213133E+02   -0.59897E-05   -0.91920E-05   705   0.568E-02
  27 F= -.76653921E+02 E0= -.76653921E+02  d E =-.616461E-01
       N       E                     dE             d eps       ncg     rms          rms(c)
DAV:   1    -0.766627260274E+02   -0.88107E-02   -0.33450E+00   768   0.898E+00    0.763E-01
RMM:   2    -0.766748164060E+02   -0.12090E-01   -0.13792E-01   994   0.162E+00    0.216E-01
RMM:   3    -0.766753603333E+02   -0.54393E-03   -0.19068E-02  1262   0.552E-01    0.194E-01
RMM:   4    -0.766754573270E+02   -0.96994E-04   -0.72255E-03  1202   0.261E-01    0.599E-02
RMM:   5    -0.766757425856E+02   -0.28526E-03   -0.33624E-03  1148   0.174E-01    0.335E-02
RMM:   6    -0.766758642343E+02   -0.12165E-03   -0.18159E-03  1133   0.130E-01    0.999E-03
RMM:   7    -0.766759214565E+02   -0.57222E-04   -0.77935E-04  1041   0.936E-02    0.616E-03
RMM:   8    -0.766759736423E+02   -0.52186E-04   -0.55787E-04   964   0.748E-02    0.501E-03
RMM:   9    -0.766759875656E+02   -0.13923E-04   -0.15298E-04   739   0.571E-02
  28 F= -.76675988E+02 E0= -.76675988E+02  d E =-.220663E-01
       N       E                     dE             d eps       ncg     rms          rms(c)
DAV:   1    -0.765896379033E+02    0.86336E-01   -0.29960E+01   768   0.269E+01    0.254E+00
RMM:   2    -0.767018564947E+02   -0.11222E+00   -0.12793E+00   991   0.488E+00    0.660E-01
RMM:   3    -0.767067230135E+02   -0.48665E-02   -0.18382E-01  1264   0.167E+00    0.622E-01
RMM:   4    -0.767073020113E+02   -0.57900E-03   -0.60321E-02  1212   0.803E-01    0.215E-01
RMM:   5    -0.767095475492E+02   -0.22455E-02   -0.26805E-02  1227   0.508E-01    0.962E-02
RMM:   6    -0.767105162710E+02   -0.96872E-03   -0.13550E-02  1251   0.368E-01    0.255E-02
RMM:   7    -0.767110677176E+02   -0.55145E-03   -0.66153E-03  1158   0.256E-01    0.178E-02
RMM:   8    -0.767115081407E+02   -0.44042E-03   -0.46143E-03  1105   0.195E-01    0.109E-02
RMM:   9    -0.767116805444E+02   -0.17240E-03   -0.17394E-03  1122   0.136E-01    0.584E-03
RMM:  10    -0.767117996043E+02   -0.11906E-03   -0.12427E-03  1047   0.107E-01    0.375E-03
RMM:  11    -0.767118525162E+02   -0.52912E-04   -0.54460E-04   955   0.812E-02    0.268E-03
RMM:  12    -0.767118821134E+02   -0.29597E-04   -0.32592E-04   878   0.679E-02    0.121E-03
RMM:  13    -0.767118934081E+02   -0.11295E-04   -0.13700E-04   735   0.586E-02
  29 F= -.76711893E+02 E0= -.76711893E+02  d E =-.579721E-01
       N       E                     dE             d eps       ncg     rms          rms(c)
DAV:   1    -0.767214213468E+02   -0.95392E-02   -0.38615E+00   768   0.983E+00    0.892E-01
RMM:   2    -0.767329628168E+02   -0.11541E-01   -0.14855E-01   999   0.171E+00    0.288E-01
RMM:   3    -0.767332772976E+02   -0.31448E-03   -0.23282E-02  1273   0.610E-01    0.233E-01
RMM:   4    -0.767332996925E+02   -0.22395E-04   -0.88112E-03  1215   0.309E-01    0.697E-02
RMM:   5    -0.767336470936E+02   -0.34740E-03   -0.43463E-03  1209   0.204E-01    0.357E-02
RMM:   6    -0.767338338079E+02   -0.18671E-03   -0.20698E-03  1117   0.144E-01    0.169E-02
RMM:   7    -0.767339166103E+02   -0.82802E-04   -0.96534E-04  1096   0.105E-01    0.106E-02
RMM:   8    -0.767339708657E+02   -0.54255E-04   -0.60129E-04   998   0.814E-02    0.381E-03
RMM:   9    -0.767339966548E+02   -0.25789E-04   -0.27913E-04   887   0.638E-02    0.153E-03
RMM:  10    -0.767340058537E+02   -0.91990E-05   -0.11533E-04   709   0.541E-02
  30 F= -.76734006E+02 E0= -.76734006E+02  d E =-.221124E-01
       N       E                     dE             d eps       ncg     rms          rms(c)
DAV:   1    -0.766949265601E+02    0.39070E-01   -0.17387E+01   768   0.208E+01    0.195E+00
RMM:   2    -0.767478499942E+02   -0.52923E-01   -0.67678E-01   997   0.365E+00    0.629E-01
RMM:   3    -0.767505339470E+02   -0.26840E-02   -0.11367E-01  1271   0.131E+00    0.532E-01
RMM:   4    -0.767504228177E+02    0.11113E-03   -0.38511E-02  1209   0.666E-01    0.164E-01
RMM:   5    -0.767517825000E+02   -0.13597E-02   -0.17594E-02  1243   0.425E-01    0.753E-02
RMM:   6    -0.767525082094E+02   -0.72571E-03   -0.83373E-03  1268   0.297E-01    0.372E-02
RMM:   7    -0.767528480620E+02   -0.33985E-03   -0.40851E-03  1163   0.212E-01    0.235E-02
RMM:   8    -0.767530990458E+02   -0.25098E-03   -0.27220E-03  1128   0.163E-01    0.552E-03
RMM:   9    -0.767532360398E+02   -0.13699E-03   -0.14212E-03  1108   0.121E-01    0.496E-03
RMM:  10    -0.767533177587E+02   -0.81719E-04   -0.84867E-04  1044   0.931E-02    0.746E-03
RMM:  11    -0.767533624358E+02   -0.44677E-04   -0.45963E-04   939   0.726E-02    0.985E-03
RMM:  12    -0.767533779148E+02   -0.15479E-04   -0.17270E-04   753   0.591E-02
  31 F= -.76753378E+02 E0= -.76753378E+02  d E =-.414845E-01
       N       E                     dE             d eps       ncg     rms          rms(c)
DAV:   1    -0.767446953650E+02    0.86671E-02   -0.76365E+00   768   0.141E+01    0.664E-01
RMM:   2    -0.767645884285E+02   -0.19893E-01   -0.22267E-01  1018   0.214E+00    0.216E-01
RMM:   3    -0.767675070821E+02   -0.29187E-02   -0.36289E-02  1266   0.744E-01    0.191E-01
RMM:   4    -0.767678655198E+02   -0.35844E-03   -0.11052E-02  1267   0.360E-01    0.905E-02
RMM:   5    -0.767684200153E+02   -0.55450E-03   -0.63708E-03  1239   0.247E-01    0.361E-02
RMM:   6    -0.767686620906E+02   -0.24208E-03   -0.28380E-03  1205   0.176E-01    0.126E-02
RMM:   7    -0.767688032319E+02   -0.14114E-03   -0.15828E-03  1134   0.129E-01    0.828E-03
RMM:   8    -0.767688911647E+02   -0.87933E-04   -0.92720E-04  1070   0.993E-02    0.583E-03
RMM:   9    -0.767689257038E+02   -0.34539E-04   -0.38756E-04   961   0.755E-02    0.196E-03
RMM:  10    -0.767689466770E+02   -0.20973E-04   -0.24190E-04   851   0.640E-02    0.211E-03
RMM:  11    -0.767689520813E+02   -0.54043E-05   -0.83706E-05   704   0.563E-02
  32 F= -.76768952E+02 E0= -.76768952E+02  d E =-.155742E-01
       N       E                     dE             d eps       ncg     rms          rms(c)
DAV:   1    -0.766709298803E+02    0.98017E-01   -0.32766E+01   768   0.292E+01    0.142E+00
RMM:   2    -0.767606353918E+02   -0.89706E-01   -0.10068E+00  1014   0.446E+00    0.461E-01
RMM:   3    -0.767758930563E+02   -0.15258E-01   -0.18508E-01  1267   0.159E+00    0.411E-01
RMM:   4    -0.767776392350E+02   -0.17462E-02   -0.48312E-02  1277   0.777E-01    0.216E-01
RMM:   5    -0.767795493926E+02   -0.19102E-02   -0.23930E-02  1243   0.502E-01    0.782E-02
RMM:   6    -0.767805163265E+02   -0.96693E-03   -0.10749E-02  1302   0.348E-01    0.262E-02
RMM:   7    -0.767810724365E+02   -0.55611E-03   -0.59478E-03  1220   0.245E-01    0.177E-02
RMM:   8    -0.767813697346E+02   -0.29730E-03   -0.30872E-03  1171   0.180E-01    0.107E-02
RMM:   9    -0.767815164774E+02   -0.14674E-03   -0.16274E-03  1182   0.134E-01    0.319E-03
RMM:  10    -0.767816227466E+02   -0.10627E-03   -0.11223E-03  1075   0.105E-01    0.405E-03
RMM:  11    -0.767816675813E+02   -0.44835E-04   -0.47116E-04   954   0.799E-02    0.306E-03
RMM:  12    -0.767816906473E+02   -0.23066E-04   -0.26401E-04   830   0.676E-02    0.118E-03
RMM:  13    -0.767816991086E+02   -0.84613E-05   -0.11787E-04   749   0.599E-02
  33 F= -.76781699E+02 E0= -.76781699E+02  d E =-.283212E-01
       N       E                     dE             d eps       ncg     rms          rms(c)
DAV:   1    -0.767664037402E+02    0.15287E-01   -0.12753E+01   768   0.184E+01    0.120E+00
RMM:   2    -0.767938362986E+02   -0.27433E-01   -0.32777E-01  1009   0.265E+00    0.271E-01
RMM:   3    -0.767979605256E+02   -0.41242E-02   -0.52440E-02  1273   0.884E-01    0.170E-01
RMM:   4    -0.767984561040E+02   -0.49558E-03   -0.13844E-02  1278   0.410E-01    0.592E-02
RMM:   5    -0.767991639651E+02   -0.70786E-03   -0.79958E-03  1264   0.275E-01    0.273E-02
RMM:   6    -0.767994800016E+02   -0.31604E-03   -0.33249E-03  1255   0.188E-01    0.128E-02
RMM:   7    -0.767996216852E+02   -0.14168E-03   -0.15125E-03  1175   0.131E-01    0.819E-03
RMM:   8    -0.767997093241E+02   -0.87639E-04   -0.93079E-04  1128   0.101E-01    0.363E-03
RMM:   9    -0.767997454564E+02   -0.36132E-04   -0.38256E-04   945   0.748E-02    0.170E-03
RMM:  10    -0.767997596069E+02   -0.14150E-04   -0.17136E-04   793   0.634E-02
  34 F= -.76799760E+02 E0= -.76799760E+02  d E =-.180605E-01
       N       E                     dE             d eps       ncg     rms          rms(c)
DAV:   1    -0.767524635416E+02    0.47282E-01   -0.19440E+01   768   0.227E+01    0.153E+00
RMM:   2    -0.767945026058E+02   -0.42039E-01   -0.50259E-01  1010   0.326E+00    0.338E-01
RMM:   3    -0.768012626658E+02   -0.67601E-02   -0.83309E-02  1275   0.110E+00    0.213E-01
RMM:   4    -0.768020525430E+02   -0.78988E-03   -0.21287E-02  1277   0.514E-01    0.769E-02
RMM:   5    -0.768030718048E+02   -0.10193E-02   -0.11656E-02  1269   0.339E-01    0.342E-02
RMM:   6    -0.768035375255E+02   -0.46572E-03   -0.49082E-03  1285   0.231E-01    0.161E-02
RMM:   7    -0.768037440602E+02   -0.20653E-03   -0.21899E-03  1193   0.158E-01    0.993E-03
RMM:   8    -0.768038727403E+02   -0.12868E-03   -0.13627E-03  1178   0.120E-01    0.448E-03
RMM:   9    -0.768039308117E+02   -0.58071E-04   -0.60444E-04  1049   0.876E-02    0.226E-03
RMM:  10    -0.768039597737E+02   -0.28962E-04   -0.31831E-04   912   0.711E-02    0.174E-03
RMM:  11    -0.768039687301E+02   -0.89564E-05   -0.11943E-04   740   0.607E-02
  35 F= -.76803969E+02 E0= -.76803969E+02  d E =-.222696E-01
       N       E                     dE             d eps       ncg     rms          rms(c)
DAV:   1    -0.768013951278E+02    0.25646E-02   -0.15068E+00   816   0.632E+00    0.401E-01
RMM:   2    -0.768044368557E+02   -0.30417E-02   -0.35917E-02  1006   0.885E-01    0.981E-02
RMM:   3    -0.768047688076E+02   -0.33195E-03   -0.48405E-03  1246   0.278E-01    0.693E-02
RMM:   4    -0.768047814571E+02   -0.12650E-04   -0.11539E-03  1218   0.115E-01    0.231E-02
RMM:   5    -0.768048259693E+02   -0.44512E-04   -0.54219E-04   944   0.772E-02    0.843E-03
RMM:   6    -0.768048429251E+02   -0.16956E-04   -0.21514E-04   863   0.596E-02    0.509E-03
RMM:   7    -0.768048430685E+02   -0.14341E-06   -0.24759E-05   583   0.495E-02
  36 F= -.76804843E+02 E0= -.76804843E+02  d E =-.231440E-01
       N       E                     dE             d eps       ncg     rms          rms(c)
DAV:   1    -0.768012246872E+02    0.36182E-02   -0.72002E+00   768   0.138E+01    0.451E-01
RMM:   2    -0.768163892395E+02   -0.15165E-01   -0.17120E-01  1017   0.190E+00    0.153E-01
RMM:   3    -0.768187684056E+02   -0.23792E-02   -0.27574E-02  1262   0.637E-01    0.118E-01
RMM:   4    -0.768190665906E+02   -0.29818E-03   -0.73714E-03  1278   0.292E-01    0.561E-02
RMM:   5    -0.768194144873E+02   -0.34790E-03   -0.39626E-03  1238   0.193E-01    0.257E-02
RMM:   6    -0.768195593186E+02   -0.14483E-03   -0.16246E-03  1206   0.132E-01    0.102E-02
RMM:   7    -0.768196320832E+02   -0.72765E-04   -0.79610E-04  1030   0.948E-02    0.610E-03
RMM:   8    -0.768196693363E+02   -0.37253E-04   -0.41231E-04   922   0.748E-02    0.257E-03
RMM:   9    -0.768196813057E+02   -0.11969E-04   -0.15000E-04   782   0.609E-02
  37 F= -.76819681E+02 E0= -.76819681E+02  d E =-.148382E-01
       N       E                     dE             d eps       ncg     rms          rms(c)
DAV:   1    -0.766322168140E+02    0.18745E+00   -0.63373E+01   768   0.409E+01    0.153E+00
RMM:   2    -0.767925228132E+02   -0.16031E+00   -0.18159E+00  1017   0.584E+00    0.500E-01
RMM:   3    -0.768310497445E+02   -0.38527E-01   -0.41584E-01  1268   0.216E+00    0.410E-01
RMM:   4    -0.768362635237E+02   -0.52138E-02   -0.91692E-02  1306   0.106E+00    0.242E-01
RMM:   5    -0.768390899480E+02   -0.28264E-02   -0.36973E-02  1273   0.637E-01    0.112E-01
RMM:   6    -0.768405753187E+02   -0.14854E-02   -0.16102E-02  1314   0.419E-01    0.299E-02
RMM:   7    -0.768411693525E+02   -0.59403E-03   -0.60797E-03  1251   0.263E-01    0.178E-02
RMM:   8    -0.768415007883E+02   -0.33144E-03   -0.34471E-03  1249   0.191E-01    0.115E-02
RMM:   9    -0.768416589209E+02   -0.15813E-03   -0.16640E-03  1179   0.137E-01    0.493E-03
RMM:  10    -0.768417510138E+02   -0.92093E-04   -0.96892E-04  1116   0.104E-01    0.305E-03
RMM:  11    -0.768417938255E+02   -0.42812E-04   -0.45279E-04   939   0.799E-02    0.266E-03
RMM:  12    -0.768418129842E+02   -0.19159E-04   -0.22375E-04   830   0.675E-02    0.218E-03
RMM:  13    -0.768418185834E+02   -0.55992E-05   -0.90525E-05   697   0.605E-02
  38 F= -.76841819E+02 E0= -.76841819E+02  d E =-.369755E-01
       N       E                     dE             d eps       ncg     rms          rms(c)
DAV:   1    -0.768368534059E+02    0.49596E-02   -0.19991E+00   800   0.721E+00    0.238E-01
RMM:   2    -0.768412458460E+02   -0.43924E-02   -0.49114E-02  1031   0.101E+00    0.814E-02
RMM:   3    -0.768419311657E+02   -0.68532E-03   -0.81888E-03  1261   0.356E-01    0.605E-02
RMM:   4    -0.768420725294E+02   -0.14136E-03   -0.26251E-03  1271   0.172E-01    0.271E-02
RMM:   5    -0.768422118265E+02   -0.13930E-03   -0.15216E-03  1190   0.119E-01    0.127E-02
RMM:   6    -0.768422628471E+02   -0.51021E-04   -0.54880E-04   979   0.827E-02    0.538E-03
RMM:   7    -0.768422782647E+02   -0.15418E-04   -0.19107E-04   841   0.651E-02
  39 F= -.76842278E+02 E0= -.76842278E+02  d E =-.374352E-01
       N       E                     dE             d eps       ncg     rms          rms(c)
DAV:   1    -0.768420261851E+02    0.23666E-03   -0.37410E+00   768   0.980E+00    0.514E-01
RMM:   2    -0.768489579450E+02   -0.69318E-02   -0.96979E-02  1031   0.142E+00    0.188E-01
RMM:   3    -0.768497598416E+02   -0.80190E-03   -0.15843E-02  1243   0.496E-01    0.133E-01
RMM:   4    -0.768498478441E+02   -0.88003E-04   -0.50818E-03  1252   0.238E-01    0.509E-02
RMM:   5    -0.768500440577E+02   -0.19621E-03   -0.24651E-03  1211   0.159E-01    0.212E-02
RMM:   6    -0.768501542777E+02   -0.11022E-03   -0.12554E-03  1182   0.113E-01    0.797E-03
RMM:   7    -0.768501994664E+02   -0.45189E-04   -0.49474E-04   936   0.812E-02    0.427E-03
RMM:   8    -0.768502224100E+02   -0.22944E-04   -0.27149E-04   868   0.673E-02    0.194E-03
RMM:   9    -0.768502285549E+02   -0.61448E-05   -0.93891E-05   713   0.581E-02
  40 F= -.76850229E+02 E0= -.76850229E+02  d E =-.795029E-02
       N       E                     dE             d eps       ncg     rms          rms(c)
DAV:   1    -0.767838902149E+02    0.66332E-01   -0.31748E+01   768   0.286E+01    0.154E+00
RMM:   2    -0.768456181883E+02   -0.61728E-01   -0.86550E-01  1019   0.418E+00    0.554E-01
RMM:   3    -0.768561365449E+02   -0.10518E-01   -0.16776E-01  1244   0.149E+00    0.398E-01
RMM:   4    -0.768570068109E+02   -0.87027E-03   -0.44053E-02  1259   0.725E-01    0.169E-01
RMM:   5    -0.768582702337E+02   -0.12634E-02   -0.17628E-02  1253   0.448E-01    0.662E-02
RMM:   6    -0.768590425687E+02   -0.77233E-03   -0.90976E-03  1298   0.310E-01    0.262E-02
RMM:   7    -0.768594365920E+02   -0.39402E-03   -0.42270E-03  1240   0.209E-01    0.142E-02
RMM:   8    -0.768596496213E+02   -0.21303E-03   -0.22515E-03  1203   0.150E-01    0.679E-03
RMM:   9    -0.768597519237E+02   -0.10230E-03   -0.10985E-03  1146   0.108E-01    0.399E-03
RMM:  10    -0.768598076606E+02   -0.55737E-04   -0.60607E-04   952   0.836E-02    0.217E-03
RMM:  11    -0.768598324389E+02   -0.24778E-04   -0.28075E-04   834   0.681E-02    0.131E-03
RMM:  12    -0.768598423936E+02   -0.99547E-05   -0.13309E-04   758   0.599E-02
  41 F= -.76859842E+02 E0= -.76859842E+02  d E =-.175641E-01
       N       E                     dE             d eps       ncg     rms          rms(c)
DAV:   1    -0.768510706301E+02    0.87618E-02   -0.74923E+00   768   0.137E+01    0.142E+00
RMM:   2    -0.768633639025E+02   -0.12293E-01   -0.22271E-01  1008   0.217E+00    0.413E-01
RMM:   3    -0.768625939356E+02    0.76997E-03   -0.33602E-02  1208   0.730E-01    0.260E-01
RMM:   4    -0.768622981512E+02    0.29578E-03   -0.11750E-02  1178   0.360E-01    0.770E-02
RMM:   5    -0.768627205268E+02   -0.42238E-03   -0.53728E-03  1254   0.232E-01    0.405E-02
RMM:   6    -0.768629500106E+02   -0.22948E-03   -0.25783E-03  1190   0.156E-01    0.132E-02
RMM:   7    -0.768630535740E+02   -0.10356E-03   -0.11415E-03  1162   0.110E-01    0.832E-03
RMM:   8    -0.768631049481E+02   -0.51374E-04   -0.56860E-04   952   0.813E-02    0.372E-03
RMM:   9    -0.768631269486E+02   -0.22001E-04   -0.25742E-04   853   0.652E-02    0.184E-03
RMM:  10    -0.768631326275E+02   -0.56789E-05   -0.87572E-05   673   0.561E-02
  42 F= -.76863133E+02 E0= -.76863133E+02  d E =-.329023E-02
       N       E                     dE             d eps       ncg     rms          rms(c)
DAV:   1    -0.768630088965E+02    0.11805E-03   -0.70499E-01   864   0.421E+00    0.421E-01
RMM:   2    -0.768641733078E+02   -0.11644E-02   -0.20703E-02   983   0.658E-01    0.129E-01
RMM:   3    -0.768639767887E+02    0.19652E-03   -0.25958E-03  1196   0.207E-01    0.849E-02
RMM:   4    -0.768639151736E+02    0.61615E-04   -0.80338E-04  1072   0.932E-02    0.236E-02
RMM:   5    -0.768639263395E+02   -0.11166E-04   -0.21823E-04   812   0.578E-02    0.114E-02
RMM:   6    -0.768639321198E+02   -0.57803E-05   -0.10316E-04   695   0.467E-02
  43 F= -.76863932E+02 E0= -.76863932E+02  d E =-.408973E-02
       N       E                     dE             d eps       ncg     rms          rms(c)
DAV:   1    -0.768644889096E+02   -0.56257E-03   -0.18234E-01   896   0.215E+00    0.122E-01
RMM:   2    -0.768649437616E+02   -0.45485E-03   -0.49991E-03  1019   0.334E-01    0.390E-02
RMM:   3    -0.768649759342E+02   -0.32173E-04   -0.63742E-04  1179   0.109E-01    0.338E-02
RMM:   4    -0.768649744743E+02    0.14599E-05   -0.18594E-04   952   0.521E-02
  44 F= -.76864974E+02 E0= -.76864974E+02  d E =-.104235E-02
       N       E                     dE             d eps       ncg     rms          rms(c)
DAV:   1    -0.768614574484E+02    0.35185E-02   -0.15558E+00   768   0.629E+00    0.357E-01
RMM:   2    -0.768654955595E+02   -0.40381E-02   -0.44387E-02  1028   0.985E-01    0.119E-01
RMM:   3    -0.768658768237E+02   -0.38126E-03   -0.64386E-03  1252   0.333E-01    0.108E-01
RMM:   4    -0.768659208155E+02   -0.43992E-04   -0.21971E-03  1207   0.154E-01    0.384E-02
RMM:   5    -0.768660089351E+02   -0.88120E-04   -0.10421E-03  1172   0.103E-01    0.160E-02
RMM:   6    -0.768660464745E+02   -0.37539E-04   -0.42112E-04   905   0.731E-02    0.383E-03
RMM:   7    -0.768660515515E+02   -0.50769E-05   -0.79557E-05   714   0.576E-02
  45 F= -.76866052E+02 E0= -.76866052E+02  d E =-.211943E-02
       N       E                     dE             d eps       ncg     rms          rms(c)
DAV:   1    -0.768664365117E+02   -0.39004E-03   -0.91815E-02   880   0.152E+00    0.180E-01
RMM:   2    -0.768665768259E+02   -0.14031E-03   -0.28689E-03  1025   0.249E-01    0.523E-02
RMM:   3    -0.768665788701E+02   -0.20442E-05   -0.59974E-04  1211   0.102E-01    0.327E-02
RMM:   4    -0.768665770124E+02    0.18577E-05   -0.19064E-04   966   0.573E-02
  46 F= -.76866577E+02 E0= -.76866577E+02  d E =-.525461E-03
       N       E                     dE             d eps       ncg     rms          rms(c)
DAV:   1    -0.768665093810E+02    0.69489E-04   -0.24910E-01   784   0.250E+00    0.296E-01
RMM:   2    -0.768668291238E+02   -0.31974E-03   -0.72216E-03  1010   0.399E-01    0.863E-02
RMM:   3    -0.768668043712E+02    0.24753E-04   -0.12770E-03  1210   0.148E-01    0.537E-02
RMM:   4    -0.768667964511E+02    0.79201E-05   -0.47192E-04  1105   0.762E-02    0.151E-02
RMM:   5    -0.768667941921E+02    0.22590E-05   -0.30736E-05   565   0.524E-02
  47 F= -.76866794E+02 E0= -.76866794E+02  d E =-.742641E-03
       N       E                     dE             d eps       ncg     rms          rms(c)
DAV:   1    -0.768670543872E+02   -0.25794E-03   -0.39391E-02   880   0.915E-01    0.707E-02
RMM:   2    -0.768671290457E+02   -0.74659E-04   -0.12918E-03  1036   0.159E-01    0.314E-02
RMM:   3    -0.768671285912E+02    0.45447E-06   -0.20769E-04   936   0.651E-02    0.210E-02
RMM:   4    -0.768671216951E+02    0.68961E-05   -0.43646E-05   587   0.463E-02
  48 F= -.76867122E+02 E0= -.76867122E+02  d E =-.327503E-03
       N       E                     dE             d eps       ncg     rms          rms(c)
DAV:   1    -0.768670183585E+02    0.11023E-03   -0.35397E-01   768   0.275E+00    0.208E-01
RMM:   2    -0.768675321964E+02   -0.51384E-03   -0.10167E-02  1005   0.449E-01    0.945E-02
RMM:   3    -0.768674948870E+02    0.37309E-04   -0.15133E-03  1188   0.156E-01    0.645E-02
RMM:   4    -0.768674770920E+02    0.17795E-04   -0.56285E-04  1078   0.787E-02    0.161E-02
RMM:   5    -0.768674783150E+02   -0.12230E-05   -0.66122E-05   602   0.528E-02
  49 F= -.76867478E+02 E0= -.76867478E+02  d E =-.684123E-03
       N       E                     dE             d eps       ncg     rms          rms(c)
DAV:   1    -0.768678104251E+02   -0.33333E-03   -0.58243E-02   816   0.111E+00    0.149E-01
RMM:   2    -0.768677389996E+02    0.71425E-04   -0.19313E-03   995   0.192E-01    0.655E-02
RMM:   3    -0.768677089252E+02    0.30074E-04   -0.58194E-04  1136   0.896E-02    0.262E-02
RMM:   4    -0.768676954649E+02    0.13460E-04    0.28338E-05   482   0.468E-02
  50 F= -.76867695E+02 E0= -.76867695E+02  d E =-.217150E-03
       N       E                     dE             d eps       ncg     rms          rms(c)
DAV:   1    -0.768677097944E+02   -0.86922E-06   -0.31504E-02   832   0.818E-01    0.102E-01
RMM:   2    -0.768676915836E+02    0.18211E-04   -0.11174E-03  1007   0.144E-01    0.443E-02
RMM:   3    -0.768676838318E+02    0.77518E-05   -0.35687E-04  1134   0.708E-02    0.194E-02
RMM:   4    -0.768676755946E+02    0.82372E-05    0.20086E-05   466   0.406E-02
  51 F= -.76867676E+02 E0= -.76867676E+02  d E =-.197280E-03
