 vasp.5.4.4.18Apr17-6-g9f103f2a35 (build Feb 28 2020 14:15:47) complex          
  
 executed on             LinuxIFC date 2022.08.06  17:37:50
 running on   64 total cores
 distrk:  each k-point on   64 cores,    1 groups
 distr:  one band on NCORES_PER_BAND=  16 cores,    4 groups


--------------------------------------------------------------------------------------------------------


 INCAR:
 POTCAR:    PAW P 26Mar2009                       
 POTCAR:    PAW S 27Mar2009                       
 POTCAR:    PAW Li_sv 10Sep2004                   
 POTCAR:    PAW P 26Mar2009                       
   VRHFIN =P : s2p3                                                             
   LEXCH  = CA                                                                  
   EATOM  =   176.5121 eV,   12.9733 Ry                                         
                                                                                
   TITEL  = PAW P 26Mar2009                                                     
   LULTRA =        F    use ultrasoft PP ?                                      
   IUNSCR =        1    unscreen: 0-lin 1-nonlin 2-no                           
   RPACOR =    1.500    partial core radius                                     
   POMASS =   30.974; ZVAL   =    5.000    mass and valenz                      
   RCORE  =    1.900    outmost cutoff radius                                   
   RWIGS  =    2.330; RWIGS  =    1.233    wigner-seitz radius (au A)           
   ENMAX  =  255.155; ENMIN  =  191.366 eV                                      
   ICORE  =        2    local potential                                         
   LCOR   =        T    correct aug charges                                     
   LPAW   =        T    paw PP                                                  
   EAUG   =  342.924                                                            
   DEXC   =    0.000                                                            
   RMAX   =    1.935    core radius for proj-oper                               
   RAUG   =    1.300    factor for augmentation sphere                          
   RDEP   =    1.931    radius for radial grids                                 
   RDEPT  =    1.780    core radius for aug-charge                              
                                                                                
   Atomic configuration                                                         
    6 entries                                                                   
     n  l   j            E        occ.                                          
     1  0  0.50     -2072.7761   2.0000                                         
     2  0  0.50      -172.9483   2.0000                                         
     2  1  1.50      -124.4644   6.0000                                         
     3  0  0.50       -14.0086   2.0000                                         
     3  1  0.50        -5.6037   3.0000                                         
     3  2  1.50        -6.8029   0.0000                                         
   Description                                                                  
     l       E           TYP  RCUT    TYP  RCUT                                 
     0    -14.0086211     23  1.900                                             
     0    -11.8189335     23  1.900                                             
     1     -5.6037292     23  1.900                                             
     1     -0.3527308     23  1.900                                             
     2     -6.8029130     23  1.900                                             
  local pseudopotential read in
  partial core-charges read in
  partial kinetic energy density read in
  atomic valenz-charges read in
  non local Contribution for L=           0  read in
    real space projection operators read in
  non local Contribution for L=           0  read in
    real space projection operators read in
  non local Contribution for L=           1  read in
    real space projection operators read in
  non local Contribution for L=           1  read in
    real space projection operators read in
    PAW grid and wavefunctions read in
 
   number of l-projection  operators is LMAX  =           4
   number of lm-projection operators is LMMAX =           8
 
 POTCAR:    PAW S 27Mar2009                       
   VRHFIN =S : s2p4                                                             
   LEXCH  = CA                                                                  
   EATOM  =   277.3745 eV,   20.3864 Ry                                         
                                                                                
   TITEL  = PAW S 27Mar2009                                                     
   LULTRA =        F    use ultrasoft PP ?                                      
   IUNSCR =        1    unscreen: 0-lin 1-nonlin 2-no                           
   RPACOR =    1.500    partial core radius                                     
   POMASS =   32.066; ZVAL   =    6.000    mass and valenz                      
   RCORE  =    1.900    outmost cutoff radius                                   
   RWIGS  =    2.200; RWIGS  =    1.164    wigner-seitz radius (au A)           
   ENMAX  =  258.602; ENMIN  =  193.952 eV                                      
   ICORE  =        2    local potential                                         
   LCOR   =        T    correct aug charges                                     
   LPAW   =        T    paw PP                                                  
   EAUG   =  335.092                                                            
   DEXC   =    0.000                                                            
   RMAX   =    1.942    core radius for proj-oper                               
   RAUG   =    1.300    factor for augmentation sphere                          
   RDEP   =    1.954    radius for radial grids                                 
   RDEPT  =    1.744    core radius for aug-charge                              
                                                                                
   Atomic configuration                                                         
    6 entries                                                                   
     n  l   j            E        occ.                                          
     1  0  0.50     -2393.1495   2.0000                                         
     2  0  0.50      -210.5411   2.0000                                         
     2  1  1.50      -156.4410   6.0000                                         
     3  0  0.50       -17.2664   2.0000                                         
     3  1  0.50        -7.1129   4.0000                                         
     3  2  1.50        -8.1635   0.0000                                         
   Description                                                                  
     l       E           TYP  RCUT    TYP  RCUT                                 
     0    -17.2664422     23  1.900                                             
     0    -15.8420823     23  1.900                                             
     1     -7.1129072     23  1.900                                             
     1     -2.8398274     23  1.900                                             
     2     -8.1634956     23  1.900                                             
  local pseudopotential read in
  partial core-charges read in
  partial kinetic energy density read in
  atomic valenz-charges read in
  non local Contribution for L=           0  read in
    real space projection operators read in
  non local Contribution for L=           0  read in
    real space projection operators read in
  non local Contribution for L=           1  read in
    real space projection operators read in
  non local Contribution for L=           1  read in
    real space projection operators read in
    PAW grid and wavefunctions read in
 
   number of l-projection  operators is LMAX  =           4
   number of lm-projection operators is LMMAX =           8
 
 POTCAR:    PAW Li_sv 10Sep2004                   
   VRHFIN =Li: 1s2s                                                             
   LEXCH  = CA                                                                  
   EATOM  =   199.5738 eV,   14.6683 Ry                                         
                                                                                
   TITEL  = PAW Li_sv 10Sep2004                                                 
   LULTRA =        F    use ultrasoft PP ?                                      
   IUNSCR =        0    unscreen: 0-lin 1-nonlin 2-no                           
   RPACOR =    0.000    partial core radius                                     
   POMASS =    7.010; ZVAL   =    3.000    mass and valenz                      
   RCORE  =    1.700    outmost cutoff radius                                   
   RWIGS  =    2.050; RWIGS  =    1.085    wigner-seitz radius (au A)           
   ENMAX  =  498.387; ENMIN  =  373.790 eV                                      
   ICORE  =        2    local potential                                         
   LCOR   =        T    correct aug charges                                     
   LPAW   =        T    paw PP                                                  
   EAUG   =  628.945                                                            
   RMAX   =    1.732    core radius for proj-oper                               
   RAUG   =    1.300    factor for augmentation sphere                          
   RDEP   =    1.728    radius for radial grids                                 
   RDEPT  =    1.329    core radius for aug-charge                              
                                                                                
   Atomic configuration                                                         
    4 entries                                                                   
     n  l   j            E        occ.                                          
     1  0  0.50       -51.0884   2.0000                                         
     2  0  0.50        -2.8766   1.0000                                         
     2  1  0.50        -2.8708   0.0000                                         
     3  2  1.50        -1.3606   0.0000                                         
   Description                                                                  
     l       E           TYP  RCUT    TYP  RCUT                                 
     0    -51.0884324     23  1.400                                             
     0     -2.8766458     23  1.700                                             
     1     -2.8708293     23  1.400                                             
     2     -1.3605826     23  1.400                                             
  local pseudopotential read in
  atomic valenz-charges read in
  non local Contribution for L=           0  read in
    real space projection operators read in
  non local Contribution for L=           0  read in
    real space projection operators read in
  non local Contribution for L=           1  read in
    real space projection operators read in
    PAW grid and wavefunctions read in
 
   number of l-projection  operators is LMAX  =           3
   number of lm-projection operators is LMMAX =           5
 
 Optimization of the real space projectors (new method)

 maximal supplied QI-value         = 19.84
 optimisation between [QCUT,QGAM] = [ 10.32, 20.83] = [ 29.81,121.55] Ry 
 Optimized for a Real-space Cutoff    1.39 Angstroem

   l    n(q)    QCUT    max X(q) W(low)/X(q) W(high)/X(q)  e(spline) 
   0      9    10.318   158.476    0.64E-04    0.80E-04    0.60E-07
   0      9    10.318   128.097    0.63E-04    0.79E-04    0.60E-07
   1      8    10.318    73.217    0.18E-03    0.19E-03    0.20E-06
   1      8    10.318    48.248    0.18E-03    0.19E-03    0.19E-06
 Optimization of the real space projectors (new method)

 maximal supplied QI-value         = 19.84
 optimisation between [QCUT,QGAM] = [ 10.32, 20.83] = [ 29.81,121.55] Ry 
 Optimized for a Real-space Cutoff    1.39 Angstroem

   l    n(q)    QCUT    max X(q) W(low)/X(q) W(high)/X(q)  e(spline) 
   0      9    10.318   180.455    0.73E-04    0.81E-04    0.62E-07
   0      9    10.318   157.733    0.72E-04    0.81E-04    0.62E-07
   1      8    10.318    66.201    0.18E-03    0.20E-03    0.20E-06
   1      8    10.318    49.617    0.18E-03    0.20E-03    0.20E-06
 Optimization of the real space projectors (new method)

 maximal supplied QI-value         = 22.11
 optimisation between [QCUT,QGAM] = [ 10.39, 20.78] = [ 30.24,120.96] Ry 
 Optimized for a Real-space Cutoff    1.20 Angstroem

   l    n(q)    QCUT    max X(q) W(low)/X(q) W(high)/X(q)  e(spline) 
   0      7    10.392    10.443    0.77E-04    0.41E-05    0.30E-07
   0      7    10.392     8.514    0.20E-03    0.36E-04    0.67E-07
   1      7    10.392     5.406    0.20E-03    0.20E-03    0.12E-06
  PAW P 26Mar2009                       :
 energy of atom  1       EATOM= -176.5121
 kinetic energy error for atom=    0.0021 (will be added to EATOM!!)
  PAW S 27Mar2009                       :
 energy of atom  2       EATOM= -277.3745
 kinetic energy error for atom=    0.0041 (will be added to EATOM!!)
  PAW Li_sv 10Sep2004                   :
 energy of atom  3       EATOM= -199.5738
 kinetic energy error for atom=    0.0564 (will be added to EATOM!!)
 
 
 POSCAR: Good luck                               
  positions in cartesian coordinates
  No initial velocities read in
 exchange correlation table for  LEXCH =        2
   RHO(1)=    0.500       N(1)  =     2000
   RHO(2)=  100.500       N(2)  =     4000
 


--------------------------------------------------------------------------------------------------------


 ion  position               nearest neighbor table
   1  0.000  0.922  0.426-   9 2.03   7 2.03   3 2.04   6 2.04
   2  0.500  0.078  0.926-  10 2.03   8 2.03   4 2.04   5 2.04
   3  0.223  0.746  0.375-   1 2.04  10 2.63
   4  0.277  0.254  0.875-   2 2.04   9 2.63
   5  0.723  0.254  0.875-   2 2.04   9 2.63
   6  0.777  0.746  0.375-   1 2.04  10 2.63
   7  0.000  0.158  0.200-   1 2.03  11 2.13  15 2.43  14 2.43
   8  0.500  0.842  0.700-   2 2.03  12 2.13  13 2.43  16 2.43
   9  0.000  0.032  0.743-   1 2.03   4 2.63   5 2.63
  10  0.500  0.968  0.243-   2 2.03   3 2.63   6 2.63
  11  0.000  0.468  0.073-   7 2.13
  12  0.500  0.532  0.573-   8 2.13
  13  0.778  0.710  0.860-   8 2.43
  14  0.722  0.290  0.360-   7 2.43
  15  0.278  0.290  0.360-   7 2.43
  16  0.222  0.710  0.860-   8 2.43
 
  LATTYP: Found a simple orthorhombic cell.
 ALAT       =     5.9896722657
 B/A-ratio  =     1.0738588349
 C/A-ratio  =     1.2436027459
  
  Lattice vectors:
  
 A1 = (   0.0000000000,   0.0000000000,  -5.9896722657)
 A2 = (   0.0000000000,  -6.4320624805,   0.0000000000)
 A3 = (  -7.4487728766,   0.0000000000,   0.0000000000)


Analysis of symmetry for initial positions (statically):
=====================================================================
 Subroutine PRICEL returns:
 Original cell was already a primitive cell.
 

 Routine SETGRP: Setting up the symmetry group for a 
 simple orthorhombic supercell.


 Subroutine GETGRP returns: Found  4 space group operations
 (whereof  2 operations were pure point group operations)
 out of a pool of  8 trial point group operations.


The static configuration has the point symmetry C_1h.
 The point group associated with its full space group is C_2v.


Analysis of symmetry for dynamics (positions and initial velocities):
=====================================================================
 Subroutine PRICEL returns:
 Original cell was already a primitive cell.
 

 Routine SETGRP: Setting up the symmetry group for a 
 simple orthorhombic supercell.


 Subroutine GETGRP returns: Found  4 space group operations
 (whereof  2 operations were pure point group operations)
 out of a pool of  8 trial point group operations.


The dynamic configuration has the point symmetry C_1h.
 The point group associated with its full space group is C_2v.


 Subroutine INISYM returns: Found  4 space group operations
 (whereof  2 operations are pure point group operations),
 and found     1 'primitive' translations

 
 
 KPOINTS: Automatic mesh                          

Automatic generation of k-mesh.
Space group operators:
 irot       det(A)        alpha          n_x          n_y          n_z        tau_x        tau_y        tau_z
    1     1.000000     0.000000     1.000000     0.000000     0.000000     0.000000     0.000000     0.000000
    2    -1.000000   180.000000     1.000000     0.000000     0.000000     0.000000     0.000000     0.000000
    3    -1.000000   180.000000     0.000000     1.000000     0.000000    -0.500000    -0.000000    -0.500000
    4     1.000000   180.000000     0.000000     0.000000     1.000000    -0.500000    -0.000000    -0.500000
 
 Subroutine IBZKPT returns following result:
 ===========================================
 
 Found      8 irreducible k-points:
 
 Following reciprocal coordinates:
            Coordinates               Weight
  0.125000  0.125000  0.125000      8.000000
  0.375000  0.125000  0.125000      8.000000
  0.125000  0.375000  0.125000      8.000000
  0.375000  0.375000  0.125000      8.000000
  0.125000  0.125000  0.375000      8.000000
  0.375000  0.125000  0.375000      8.000000
  0.125000  0.375000  0.375000      8.000000
  0.375000  0.375000  0.375000      8.000000
 
 Following cartesian coordinates:
            Coordinates               Weight
  0.016781  0.019434  0.020869      8.000000
  0.050344  0.019434  0.020869      8.000000
  0.016781  0.058302  0.020869      8.000000
  0.050344  0.058302  0.020869      8.000000
  0.016781  0.019434  0.062608      8.000000
  0.050344  0.019434  0.062608      8.000000
  0.016781  0.058302  0.062608      8.000000
  0.050344  0.058302  0.062608      8.000000
 
 TETIRR: Found    140 inequivalent tetrahedra from      384


--------------------------------------------------------------------------------------------------------




 Dimension of arrays:
   k-points           NKPTS =      8   k-points in BZ     NKDIM =      8   number of bands    NBANDS=     48
   number of dos      NEDOS =    301   number of ions     NIONS =     16
   non local maximal  LDIM  =      4   non local SUM 2l+1 LMDIM =      8
   total plane-waves  NPLWV =  96000
   max r-space proj   IRMAX =   3794   max aug-charges    IRDMAX=  10738
   dimension x,y,z NGX =    50 NGY =   48 NGZ =   40
   dimension x,y,z NGXF=   100 NGYF=   96 NGZF=   80
   support grid    NGXF=   100 NGYF=   96 NGZF=   80
   ions per type =               2   8   6
   NGX,Y,Z   is equivalent  to a cutoff of  11.16, 12.41, 11.10 a.u.
   NGXF,Y,Z  is equivalent  to a cutoff of  22.32, 24.81, 22.20 a.u.

 SYSTEM =  unknown system                          
 POSCAR =  Good luck                               

 Startparameter for this run:
   NWRITE =      2    write-flag & timer
   PREC   = accura    normal or accurate (medium, high low for compatibility)
   ISTART =      0    job   : 0-new  1-cont  2-samecut
   ICHARG =      2    charge: 1-file 2-atom 10-const
   ISPIN  =      1    spin polarized calculation?
   LNONCOLLINEAR =      F non collinear calculations
   LSORBIT =      F    spin-orbit coupling
   INIWAV =      1    electr: 0-lowe 1-rand  2-diag
   LASPH  =      F    aspherical Exc in radial PAW
   METAGGA=      F    non-selfconsistent MetaGGA calc.

 Electronic Relaxation 1
   ENCUT  =  420.0 eV  30.87 Ry    5.56 a.u.  12.45 10.75 10.01*2*pi/ulx,y,z
   ENINI  =  420.0     initial cutoff
   ENAUG  =  628.9 eV  augmentation charge cutoff
   NELM   =    100;   NELMIN=  2; NELMDL= -5     # of ELM steps 
   EDIFF  = 0.2E-04   stopping-criterion for ELM
   LREAL  =      T    real-space projection
   NLSPLINE    = F    spline interpolate recip. space projectors
   LCOMPAT=      F    compatible to vasp.4.4
   GGA_COMPAT  = T    GGA compatible to vasp.4.4-vasp.4.6
   LMAXPAW     = -100 max onsite density
   LMAXMIX     =    2 max onsite mixed and CHGCAR
   VOSKOWN=      0    Vosko Wilk Nusair interpolation
   ROPT   =   -0.00025  -0.00025  -0.00025
 Ionic relaxation
   EDIFFG = 0.2E-03   stopping-criterion for IOM
   NSW    =    100    number of steps for IOM
   NBLOCK =      1;   KBLOCK =    100    inner block; outer block 
   IBRION =      2    ionic relax: 0-MD 1-quasi-New 2-CG
   NFREE  =      1    steps in history (QN), initial steepest desc. (CG)
   ISIF   =      3    stress and relaxation
   IWAVPR =     11    prediction:  0-non 1-charg 2-wave 3-comb
   ISYM   =      2    0-nonsym 1-usesym 2-fastsym
   LCORR  =      T    Harris-Foulkes like correction to forces

   POTIM  = 0.5000    time-step for ionic-motion
   TEIN   =    0.0    initial temperature
   TEBEG  =    0.0;   TEEND  =   0.0 temperature during run
   SMASS  =  -3.00    Nose mass-parameter (am)
   estimated Nose-frequenzy (Omega)   =  0.10E-29 period in steps =****** mass=  -0.127E-26a.u.
   SCALEE = 1.0000    scale energy and forces
   NPACO  =    256;   APACO  = 16.0  distance and # of slots for P.C.
   PSTRESS=    0.0 pullay stress

  Mass of Ions in am
   POMASS =  30.97 32.07  7.01
  Ionic Valenz
   ZVAL   =   5.00  6.00  3.00
  Atomic Wigner-Seitz radii
   RWIGS  =  -1.00 -1.00 -1.00
  virtual crystal weights 
   VCA    =   1.00  1.00  1.00
   NELECT =      76.0000    total number of electrons
   NUPDOWN=      -1.0000    fix difference up-down

 DOS related values:
   EMIN   =  10.00;   EMAX   =-10.00  energy-range for DOS
   EFERMI =   0.00
   ISMEAR =    -5;   SIGMA  =   0.20  broadening in eV -4-tet -1-fermi 0-gaus

 Electronic relaxation 2 (details)
   IALGO  =     68    algorithm
   LDIAG  =      T    sub-space diagonalisation (order eigenvalues)
   LSUBROT=      F    optimize rotation matrix (better conditioning)
   TURBO    =      0    0=normal 1=particle mesh
   IRESTART =      0    0=no restart 2=restart with 2 vectors
   NREBOOT  =      0    no. of reboots
   NMIN     =      0    reboot dimension
   EREF     =   0.00    reference energy to select bands
   IMIX   =      4    mixing-type and parameters
     AMIX     =   0.40;   BMIX     =  1.00
     AMIX_MAG =   1.60;   BMIX_MAG =  1.00
     AMIN     =   0.10
     WC   =   100.;   INIMIX=   1;  MIXPRE=   1;  MAXMIX= -45

 Intra band minimization:
   WEIMIN = 0.0010     energy-eigenvalue tresh-hold
   EBREAK =  0.10E-06  absolut break condition
   DEPER  =   0.30     relativ break condition  

   TIME   =   0.40     timestep for ELM

  volume/ion in A,a.u.               =      17.94       121.04
  Fermi-wavevector in a.u.,A,eV,Ry     =   1.051316  1.986699 15.038053  1.105266
  Thomas-Fermi vector in A             =   2.186354
 
 Write flags
   LWAVE        =      F    write WAVECAR
   LDOWNSAMPLE  =      F    k-point downsampling of WAVECAR
   LCHARG       =      F    write CHGCAR
   LVTOT        =      F    write LOCPOT, total local potential
   LVHAR        =      F    write LOCPOT, Hartree potential only
   LELF         =      F    write electronic localiz. function (ELF)
   LORBIT       =      0    0 simple, 1 ext, 2 COOP (PROOUT), +10 PAW based schemes


 Dipole corrections
   LMONO  =      F    monopole corrections only (constant potential shift)
   LDIPOL =      F    correct potential (dipole corrections)
   IDIPOL =      0    1-x, 2-y, 3-z, 4-all directions 
   EPSILON=  1.0000000 bulk dielectric constant

 Exchange correlation treatment:
   GGA     =    --    GGA type
   LEXCH   =     2    internal setting for exchange type
   VOSKOWN=      0    Vosko Wilk Nusair interpolation
   LHFCALC =     F    Hartree Fock is set to
   LHFONE  =     F    Hartree Fock one center treatment
   AEXX    =    0.0000 exact exchange contribution

 Linear response parameters
   LEPSILON=     F    determine dielectric tensor
   LRPA    =     F    only Hartree local field effects (RPA)
   LNABLA  =     F    use nabla operator in PAW spheres
   LVEL    =     F    velocity operator in full k-point grid
   LINTERFAST=   F  fast interpolation
   KINTER  =     0    interpolate to denser k-point grid
   CSHIFT  =0.1000    complex shift for real part using Kramers Kronig
   OMEGAMAX=  -1.0    maximum frequency
   DEG_THRESHOLD= 0.2000000E-02 threshold for treating states as degnerate
   RTIME   =   -0.100 relaxation time in fs
  (WPLASMAI=    0.000 imaginary part of plasma frequency in eV, 0.658/RTIME)
   DFIELD  = 0.0000000 0.0000000 0.0000000 field for delta impulse in time
 
 Orbital magnetization related:
   ORBITALMAG=     F  switch on orbital magnetization
   LCHIMAG   =     F  perturbation theory with respect to B field
   DQ        =  0.001000  dq finite difference perturbation B field
   LLRAUG    =     F  two centre corrections for induced B field



--------------------------------------------------------------------------------------------------------


 conjugate gradient relaxation of ions
 charge density and potential will be updated during run
 non-spin polarized calculation
 RMM-DIIS sequential band-by-band and
  variant of blocked Davidson during initial phase
 perform sub-space diagonalisation
    before iterative eigenvector-optimisation
 modified Broyden-mixing scheme, WC =      100.0
 initial mixing is a Kerker type mixing with AMIX =  0.4000 and BMIX =      1.0000
 Hartree-type preconditioning will be used
 using additional bands           10
 real space projection scheme for non local part
 use partial core corrections
 calculate Harris-corrections to forces 
   (improved forces if not selfconsistent)
 use of overlap-Matrix (Vanderbilt PP)
 Fermi weights with tetrahedron method with Bloechl corrections


--------------------------------------------------------------------------------------------------------


  energy-cutoff  :      420.00
  volume of cell :      286.97
      direct lattice vectors                 reciprocal lattice vectors
     7.448772877  0.000000000  0.000000000     0.134250301  0.000000000  0.000000000
     0.000000000  6.432062480  0.000000000     0.000000000  0.155471127  0.000000000
     0.000000000  0.000000000  5.989672266     0.000000000  0.000000000  0.166954043

  length of vectors
     7.448772877  6.432062480  5.989672266     0.134250301  0.155471127  0.166954043


 
 k-points in units of 2pi/SCALE and weight: Automatic mesh                          
   0.01678129  0.01943389  0.02086926       0.125
   0.05034386  0.01943389  0.02086926       0.125
   0.01678129  0.05830167  0.02086926       0.125
   0.05034386  0.05830167  0.02086926       0.125
   0.01678129  0.01943389  0.06260777       0.125
   0.05034386  0.01943389  0.06260777       0.125
   0.01678129  0.05830167  0.06260777       0.125
   0.05034386  0.05830167  0.06260777       0.125
 
 k-points in reciprocal lattice and weights: Automatic mesh                          
   0.12500000  0.12500000  0.12500000       0.125
   0.37500000  0.12500000  0.12500000       0.125
   0.12500000  0.37500000  0.12500000       0.125
   0.37500000  0.37500000  0.12500000       0.125
   0.12500000  0.12500000  0.37500000       0.125
   0.37500000  0.12500000  0.37500000       0.125
   0.12500000  0.37500000  0.37500000       0.125
   0.37500000  0.37500000  0.37500000       0.125
 
 position of ions in fractional coordinates (direct lattice) 
   0.00000000  0.92200662  0.42587935
   0.50000000  0.07799338  0.92587935
   0.22347338  0.74580378  0.37542045
   0.27652662  0.25419622  0.87542045
   0.72347338  0.25419622  0.87542045
   0.77652662  0.74580378  0.37542045
   0.00000000  0.15813928  0.20028583
   0.50000000  0.84186072  0.70028583
   0.00000000  0.03227096  0.74347704
   0.50000000  0.96772904  0.24347704
   0.00000000  0.46770244  0.07310690
   0.50000000  0.53229756  0.57310690
   0.77759989  0.71044541  0.85966867
   0.72240011  0.28955459  0.35966867
   0.27759989  0.28955459  0.35966867
   0.22240011  0.71044541  0.85966867
 
 position of ions in cartesian coordinates  (Angst):
   0.00000000  5.93040420  2.55087772
   3.72438644  0.50165828  5.54571385
   1.66460242  4.79705649  2.24864547
   2.05978402  1.63500599  5.24348160
   5.38898886  1.63500599  5.24348160
   5.78417046  4.79705649  2.24864547
   0.00000000  1.01716170  1.19964646
   3.72438644  5.41490078  4.19448259
   0.00000000  0.20756880  4.45318380
   3.72438644  6.22449368  1.45834767
   0.00000000  3.00829133  0.43788637
   3.72438644  3.42377115  3.43272251
   5.79216493  4.56962927  5.14913359
   5.38099438  1.86243321  2.15429746
   2.06777850  1.86243321  2.15429746
   1.65660794  4.56962927  5.14913359
 


--------------------------------------------------------------------------------------------------------


 k-point  1 :   0.1250 0.1250 0.1250  plane waves:    5609
 k-point  2 :   0.3750 0.1250 0.1250  plane waves:    5598
 k-point  3 :   0.1250 0.3750 0.1250  plane waves:    5602
 k-point  4 :   0.3750 0.3750 0.1250  plane waves:    5608
 k-point  5 :   0.1250 0.1250 0.3750  plane waves:    5622
 k-point  6 :   0.3750 0.1250 0.3750  plane waves:    5601
 k-point  7 :   0.1250 0.3750 0.3750  plane waves:    5621
 k-point  8 :   0.3750 0.3750 0.3750  plane waves:    5607

 maximum and minimum number of plane-waves per node :       364      336

 maximum number of plane-waves:      5622
 maximum index in each direction: 
   IXMAX=   12   IYMAX=   10   IZMAX=    9
   IXMIN=  -12   IYMIN=  -11   IZMIN=  -10


 real space projection operators:
  total allocation   :       2812.48 KBytes
  max/ min on nodes  :        231.66        156.35


 parallel 3D FFT for wavefunctions:
    minimum data exchange during FFTs selected (reduces bandwidth)
 parallel 3D FFT for charge:
    minimum data exchange during FFTs selected (reduces bandwidth)


 total amount of memory used by VASP MPI-rank0    33907. kBytes
=======================================================================

   base      :      30000. kBytes
   nonlr-proj:       1301. kBytes
   fftplans  :        733. kBytes
   grid      :       1311. kBytes
   one-center:          3. kBytes
   wavefun   :        559. kBytes
 
     INWAV:  cpu time    0.0000: real time    0.0000
 Broyden mixing: mesh for mixing (old mesh)
   NGX = 25   NGY = 21   NGZ = 21
  (NGX  =100   NGY  = 96   NGZ  = 80)
  gives a total of  11025 points

 initial charge density was supplied:
 charge density of overlapping atoms calculated
 number of electron      76.0000000 magnetization 
 keeping initial charge density in first step


--------------------------------------------------------------------------------------------------------


 Maximum index for non-local projection operator          577
 Maximum index for augmentation-charges          588 (set IRDMAX)


--------------------------------------------------------------------------------------------------------


 First call to EWALD:  gamma=   0.269
 Maximum number of real-space cells 2x 3x 3
 Maximum number of reciprocal cells 3x 3x 3

    FEWALD:  cpu time    0.0015: real time    0.0015


--------------------------------------- Iteration      1(   1)  ---------------------------------------


    POTLOK:  cpu time    0.0060: real time    0.0107
    SETDIJ:  cpu time    0.0033: real time    0.0039
     EDDAV:  cpu time    0.1989: real time    0.2127
 BZINTS: Fermi energy: 15.160301; 76.000000 electrons
         Band energy:-108.755592;  BLOECHL correction:  0.000000
       DOS:  cpu time    0.0017: real time    0.0021
    --------------------------------------------
      LOOP:  cpu time    0.2098: real time    0.2293

 eigenvalue-minimisations  :   768
 total energy-change (2. order) : 0.4943244E+03  (-0.2823731E+04)
 number of electron      76.0000000 magnetization 
 augmentation part       76.0000000 magnetization 

 Free energy of the ion-electron system (eV)
  ---------------------------------------------------
  alpha Z        PSCENC =        68.76289450
  Ewald energy   TEWEN  =     -2670.72799355
  -Hartree energ DENC   =      -699.53983790
  -exchange      EXHF   =         0.00000000
  -V(xc)+E(xc)   XCENC  =       182.39477973
  PAW double counting   =      2494.22442938    -2541.12215007
  entropy T*S    EENTRO =         0.00000000
  eigenvalues    EBANDS =      -108.75559187
  atomic energy  EATOM  =      3769.08782378
  Solvation  Ediel_sol  =         0.00000000
  ---------------------------------------------------
  free energy    TOTEN  =       494.32435400 eV

  energy without entropy =      494.32435400  energy(sigma->0) =      494.32435400


--------------------------------------------------------------------------------------------------------




--------------------------------------- Iteration      1(   2)  ---------------------------------------


     EDDAV:  cpu time    0.1961: real time    0.1964
 BZINTS: Fermi energy:  6.485187; 76.000000 electrons
         Band energy:-597.601161;  BLOECHL correction: -0.022587
       DOS:  cpu time    0.0088: real time    0.0088
    --------------------------------------------
      LOOP:  cpu time    0.2050: real time    0.2052

 eigenvalue-minimisations  :   896
 total energy-change (2. order) :-0.4888456E+03  (-0.4659287E+03)
 number of electron      76.0000000 magnetization 
 augmentation part       76.0000000 magnetization 

 Free energy of the ion-electron system (eV)
  ---------------------------------------------------
  alpha Z        PSCENC =        68.76289450
  Ewald energy   TEWEN  =     -2670.72799355
  -Hartree energ DENC   =      -699.53983790
  -exchange      EXHF   =         0.00000000
  -V(xc)+E(xc)   XCENC  =       182.39477973
  PAW double counting   =      2494.22442938    -2541.12215007
  entropy T*S    EENTRO =         0.00000000
  eigenvalues    EBANDS =      -597.60116052
  atomic energy  EATOM  =      3769.08782378
  Solvation  Ediel_sol  =         0.00000000
  ---------------------------------------------------
  free energy    TOTEN  =         5.47878535 eV

  energy without entropy =        5.47878535  energy(sigma->0) =        5.47878535


--------------------------------------------------------------------------------------------------------




--------------------------------------- Iteration      1(   3)  ---------------------------------------


     EDDAV:  cpu time    0.2230: real time    0.2298
 BZINTS: Fermi energy:  4.106537; 76.000000 electrons
         Band energy:-665.936012;  BLOECHL correction:  0.000000
       DOS:  cpu time    0.0013: real time    0.0013
    --------------------------------------------
      LOOP:  cpu time    0.2242: real time    0.2310

 eigenvalue-minimisations  :  1072
 total energy-change (2. order) :-0.6833485E+02  (-0.6685898E+02)
 number of electron      76.0000000 magnetization 
 augmentation part       76.0000000 magnetization 

 Free energy of the ion-electron system (eV)
  ---------------------------------------------------
  alpha Z        PSCENC =        68.76289450
  Ewald energy   TEWEN  =     -2670.72799355
  -Hartree energ DENC   =      -699.53983790
  -exchange      EXHF   =         0.00000000
  -V(xc)+E(xc)   XCENC  =       182.39477973
  PAW double counting   =      2494.22442938    -2541.12215007
  entropy T*S    EENTRO =         0.00000000
  eigenvalues    EBANDS =      -665.93601211
  atomic energy  EATOM  =      3769.08782378
  Solvation  Ediel_sol  =         0.00000000
  ---------------------------------------------------
  free energy    TOTEN  =       -62.85606624 eV

  energy without entropy =      -62.85606624  energy(sigma->0) =      -62.85606624


--------------------------------------------------------------------------------------------------------




--------------------------------------- Iteration      1(   4)  ---------------------------------------


     EDDAV:  cpu time    0.2620: real time    0.2620
 BZINTS: Fermi energy:  3.990919; 76.000000 electrons
         Band energy:-672.550517;  BLOECHL correction:  0.000000
       DOS:  cpu time    0.0015: real time    0.0015
    --------------------------------------------
      LOOP:  cpu time    0.2634: real time    0.2635

 eigenvalue-minimisations  :  1360
 total energy-change (2. order) :-0.6614505E+01  (-0.6553789E+01)
 number of electron      76.0000000 magnetization 
 augmentation part       76.0000000 magnetization 

 Free energy of the ion-electron system (eV)
  ---------------------------------------------------
  alpha Z        PSCENC =        68.76289450
  Ewald energy   TEWEN  =     -2670.72799355
  -Hartree energ DENC   =      -699.53983790
  -exchange      EXHF   =         0.00000000
  -V(xc)+E(xc)   XCENC  =       182.39477973
  PAW double counting   =      2494.22442938    -2541.12215007
  entropy T*S    EENTRO =         0.00000000
  eigenvalues    EBANDS =      -672.55051722
  atomic energy  EATOM  =      3769.08782378
  Solvation  Ediel_sol  =         0.00000000
  ---------------------------------------------------
  free energy    TOTEN  =       -69.47057135 eV

  energy without entropy =      -69.47057135  energy(sigma->0) =      -69.47057135


--------------------------------------------------------------------------------------------------------




--------------------------------------- Iteration      1(   5)  ---------------------------------------


     EDDAV:  cpu time    0.2401: real time    0.2464
 BZINTS: Fermi energy:  3.959962; 76.000000 electrons
         Band energy:-673.369124;  BLOECHL correction:  0.000000
       DOS:  cpu time    0.0015: real time    0.0015
    CHARGE:  cpu time    0.0157: real time    0.0159
    MIXING:  cpu time    0.0008: real time    0.0025
    --------------------------------------------
      LOOP:  cpu time    0.2581: real time    0.2663

 eigenvalue-minimisations  :  1208
 total energy-change (2. order) :-0.8186063E+00  (-0.8181371E+00)
 number of electron      76.0000016 magnetization 
 augmentation part       -1.7037748 magnetization 

 Broyden mixing:
  rms(total) = 0.28817E+01    rms(broyden)= 0.28809E+01
  rms(prec ) = 0.30635E+01
  weight for this iteration     100.00

 Free energy of the ion-electron system (eV)
  ---------------------------------------------------
  alpha Z        PSCENC =        68.76289450
  Ewald energy   TEWEN  =     -2670.72799355
  -Hartree energ DENC   =      -699.53983790
  -exchange      EXHF   =         0.00000000
  -V(xc)+E(xc)   XCENC  =       182.39477973
  PAW double counting   =      2494.22442938    -2541.12215007
  entropy T*S    EENTRO =         0.00000000
  eigenvalues    EBANDS =      -673.36912354
  atomic energy  EATOM  =      3769.08782378
  Solvation  Ediel_sol  =         0.00000000
  ---------------------------------------------------
  free energy    TOTEN  =       -70.28917767 eV

  energy without entropy =      -70.28917767  energy(sigma->0) =      -70.28917767


--------------------------------------------------------------------------------------------------------




--------------------------------------- Iteration      1(   6)  ---------------------------------------


    POTLOK:  cpu time    0.0037: real time    0.0037
    SETDIJ:  cpu time    0.0009: real time    0.0009
    EDDIAG:  cpu time    0.0500: real time    0.0509
  RMM-DIIS:  cpu time    0.0836: real time    0.0840
    ORTHCH:  cpu time    0.0068: real time    0.0068
 BZINTS: Fermi energy:  4.493950; 76.000000 electrons
         Band energy:-652.858753;  BLOECHL correction:  0.000000
       DOS:  cpu time    0.0015: real time    0.0015
    CHARGE:  cpu time    0.0150: real time    0.0150
    MIXING:  cpu time    0.0004: real time    0.0004
    --------------------------------------------
      LOOP:  cpu time    0.1618: real time    0.1632

 eigenvalue-minimisations  :   916
 total energy-change (2. order) : 0.2004581E+01  (-0.5114834E+00)
 number of electron      76.0000016 magnetization 
 augmentation part       -1.6531981 magnetization 

 Broyden mixing:
  rms(total) = 0.18132E+01    rms(broyden)= 0.18132E+01
  rms(prec ) = 0.18647E+01
  weight for this iteration     100.00

 eigenvalues of (default mixing * dielectric matrix)
  average eigenvalue GAMMA=   2.5196
  2.5196

 Free energy of the ion-electron system (eV)
  ---------------------------------------------------
  alpha Z        PSCENC =        68.76289450
  Ewald energy   TEWEN  =     -2670.72799355
  -Hartree energ DENC   =      -717.60082558
  -exchange      EXHF   =         0.00000000
  -V(xc)+E(xc)   XCENC  =       183.95170468
  PAW double counting   =      4199.85686622    -4248.75631347
  entropy T*S    EENTRO =         0.00000000
  eigenvalues    EBANDS =      -652.85875299
  atomic energy  EATOM  =      3769.08782378
  Solvation  Ediel_sol  =         0.00000000
  ---------------------------------------------------
  free energy    TOTEN  =       -68.28459641 eV

  energy without entropy =      -68.28459641  energy(sigma->0) =      -68.28459641


--------------------------------------------------------------------------------------------------------




--------------------------------------- Iteration      1(   7)  ---------------------------------------


    POTLOK:  cpu time    0.0034: real time    0.0034
    SETDIJ:  cpu time    0.0009: real time    0.0009
    EDDIAG:  cpu time    0.0497: real time    0.0497
  RMM-DIIS:  cpu time    0.0875: real time    0.0875
    ORTHCH:  cpu time    0.0068: real time    0.0068
 BZINTS: Fermi energy:  4.744910; 76.000000 electrons
         Band energy:-636.790074;  BLOECHL correction:  0.000000
       DOS:  cpu time    0.0017: real time    0.0017
    CHARGE:  cpu time    0.0149: real time    0.0149
    MIXING:  cpu time    0.0004: real time    0.0004
    --------------------------------------------
      LOOP:  cpu time    0.1654: real time    0.1654

 eigenvalue-minimisations  :   965
 total energy-change (2. order) : 0.2467486E+00  (-0.3166668E+00)
 number of electron      76.0000016 magnetization 
 augmentation part       -1.6423522 magnetization 

 Broyden mixing:
  rms(total) = 0.33137E+00    rms(broyden)= 0.33132E+00
  rms(prec ) = 0.38571E+00
  weight for this iteration     100.00

 eigenvalues of (default mixing * dielectric matrix)
  average eigenvalue GAMMA=   1.9756
  1.4709  2.4802

 Free energy of the ion-electron system (eV)
  ---------------------------------------------------
  alpha Z        PSCENC =        68.76289450
  Ewald energy   TEWEN  =     -2670.72799355
  -Hartree energ DENC   =      -732.98178016
  -exchange      EXHF   =         0.00000000
  -V(xc)+E(xc)   XCENC  =       185.40550450
  PAW double counting   =      7715.71285178    -7766.50707486
  entropy T*S    EENTRO =         0.00000000
  eigenvalues    EBANDS =      -636.79007384
  atomic energy  EATOM  =      3769.08782378
  Solvation  Ediel_sol  =         0.00000000
  ---------------------------------------------------
  free energy    TOTEN  =       -68.03784785 eV

  energy without entropy =      -68.03784785  energy(sigma->0) =      -68.03784785


--------------------------------------------------------------------------------------------------------




--------------------------------------- Iteration      1(   8)  ---------------------------------------


    POTLOK:  cpu time    0.0034: real time    0.0034
    SETDIJ:  cpu time    0.0010: real time    0.0010
    EDDIAG:  cpu time    0.0489: real time    0.0489
  RMM-DIIS:  cpu time    0.0915: real time    0.0915
    ORTHCH:  cpu time    0.0068: real time    0.0068
 BZINTS: Fermi energy:  4.609199; 76.000000 electrons
         Band energy:-642.577363;  BLOECHL correction:  0.000000
       DOS:  cpu time    0.0015: real time    0.0015
    CHARGE:  cpu time    0.0150: real time    0.0150
    MIXING:  cpu time    0.0005: real time    0.0005
    --------------------------------------------
      LOOP:  cpu time    0.1684: real time    0.1684

 eigenvalue-minimisations  :   992
 total energy-change (2. order) : 0.1114265E+00  (-0.3458295E-01)
 number of electron      76.0000016 magnetization 
 augmentation part       -1.6909981 magnetization 

 Broyden mixing:
  rms(total) = 0.64584E-01    rms(broyden)= 0.64565E-01
  rms(prec ) = 0.75240E-01
  weight for this iteration     100.00

 eigenvalues of (default mixing * dielectric matrix)
  average eigenvalue GAMMA=   1.6101
  2.4018  0.8692  1.5592

 Free energy of the ion-electron system (eV)
  ---------------------------------------------------
  alpha Z        PSCENC =        68.76289450
  Ewald energy   TEWEN  =     -2670.72799355
  -Hartree energ DENC   =      -726.97501727
  -exchange      EXHF   =         0.00000000
  -V(xc)+E(xc)   XCENC  =       185.02593731
  PAW double counting   =      8195.84949497    -8246.37219782
  entropy T*S    EENTRO =         0.00000000
  eigenvalues    EBANDS =      -642.57736330
  atomic energy  EATOM  =      3769.08782378
  Solvation  Ediel_sol  =         0.00000000
  ---------------------------------------------------
  free energy    TOTEN  =       -67.92642138 eV

  energy without entropy =      -67.92642138  energy(sigma->0) =      -67.92642138


--------------------------------------------------------------------------------------------------------




--------------------------------------- Iteration      1(   9)  ---------------------------------------


    POTLOK:  cpu time    0.0033: real time    0.0033
    SETDIJ:  cpu time    0.0010: real time    0.0010
    EDDIAG:  cpu time    0.0496: real time    0.0496
  RMM-DIIS:  cpu time    0.1069: real time    0.1069
    ORTHCH:  cpu time    0.0068: real time    0.0068
 BZINTS: Fermi energy:  4.649394; 76.000000 electrons
         Band energy:-642.635845;  BLOECHL correction:  0.000000
       DOS:  cpu time    0.0012: real time    0.0012
    CHARGE:  cpu time    0.0148: real time    0.0148
    MIXING:  cpu time    0.0005: real time    0.0004
    --------------------------------------------
      LOOP:  cpu time    0.1841: real time    0.1841

 eigenvalue-minimisations  :  1176
 total energy-change (2. order) : 0.2794648E-03  (-0.6038091E-02)
 number of electron      76.0000016 magnetization 
 augmentation part       -1.7066827 magnetization 

 Broyden mixing:
  rms(total) = 0.42778E-01    rms(broyden)= 0.42751E-01
  rms(prec ) = 0.45441E-01
  weight for this iteration     100.00

 eigenvalues of (default mixing * dielectric matrix)
  average eigenvalue GAMMA=   1.7087
  2.0988  2.0988  1.2554  1.3820

 Free energy of the ion-electron system (eV)
  ---------------------------------------------------
  alpha Z        PSCENC =        68.76289450
  Ewald energy   TEWEN  =     -2670.72799355
  -Hartree energ DENC   =      -726.86173932
  -exchange      EXHF   =         0.00000000
  -V(xc)+E(xc)   XCENC  =       185.02686692
  PAW double counting   =      8137.59396317    -8188.17211289
  entropy T*S    EENTRO =         0.00000000
  eigenvalues    EBANDS =      -642.63584453
  atomic energy  EATOM  =      3769.08782378
  Solvation  Ediel_sol  =         0.00000000
  ---------------------------------------------------
  free energy    TOTEN  =       -67.92614192 eV

  energy without entropy =      -67.92614192  energy(sigma->0) =      -67.92614192


--------------------------------------------------------------------------------------------------------




--------------------------------------- Iteration      1(  10)  ---------------------------------------


    POTLOK:  cpu time    0.0033: real time    0.0033
    SETDIJ:  cpu time    0.0010: real time    0.0010
    EDDIAG:  cpu time    0.0495: real time    0.0495
  RMM-DIIS:  cpu time    0.1124: real time    0.1124
    ORTHCH:  cpu time    0.0068: real time    0.0067
 BZINTS: Fermi energy:  4.646107; 76.000000 electrons
         Band energy:-642.344903;  BLOECHL correction:  0.000000
       DOS:  cpu time    0.0012: real time    0.0012
    CHARGE:  cpu time    0.0149: real time    0.0149
    MIXING:  cpu time    0.0004: real time    0.0004
    --------------------------------------------
      LOOP:  cpu time    0.1895: real time    0.1895

 eigenvalue-minimisations  :  1228
 total energy-change (2. order) :-0.1974804E-02  (-0.2567347E-02)
 number of electron      76.0000016 magnetization 
 augmentation part       -1.7144226 magnetization 

 Broyden mixing:
  rms(total) = 0.20959E-01    rms(broyden)= 0.20924E-01
  rms(prec ) = 0.23083E-01
  weight for this iteration     100.00

 eigenvalues of (default mixing * dielectric matrix)
  average eigenvalue GAMMA=   1.7548
  2.7941  2.3054  0.9470  1.3637  1.3637

 Free energy of the ion-electron system (eV)
  ---------------------------------------------------
  alpha Z        PSCENC =        68.76289450
  Ewald energy   TEWEN  =     -2670.72799355
  -Hartree energ DENC   =      -727.14555769
  -exchange      EXHF   =         0.00000000
  -V(xc)+E(xc)   XCENC  =       185.04919305
  PAW double counting   =      8028.97479650    -8079.58437019
  entropy T*S    EENTRO =         0.00000000
  eigenvalues    EBANDS =      -642.34490312
  atomic energy  EATOM  =      3769.08782378
  Solvation  Ediel_sol  =         0.00000000
  ---------------------------------------------------
  free energy    TOTEN  =       -67.92811672 eV

  energy without entropy =      -67.92811672  energy(sigma->0) =      -67.92811672


--------------------------------------------------------------------------------------------------------




--------------------------------------- Iteration      1(  11)  ---------------------------------------


    POTLOK:  cpu time    0.0033: real time    0.0033
    SETDIJ:  cpu time    0.0010: real time    0.0010
    EDDIAG:  cpu time    0.0515: real time    0.0515
  RMM-DIIS:  cpu time    0.1085: real time    0.1086
    ORTHCH:  cpu time    0.0068: real time    0.0068
 BZINTS: Fermi energy:  4.643779; 76.000000 electrons
         Band energy:-642.329887;  BLOECHL correction:  0.000000
       DOS:  cpu time    0.0012: real time    0.0012
    CHARGE:  cpu time    0.0149: real time    0.0149
    MIXING:  cpu time    0.0005: real time    0.0005
    --------------------------------------------
      LOOP:  cpu time    0.1878: real time    0.1879

 eigenvalue-minimisations  :  1153
 total energy-change (2. order) :-0.1069572E-02  (-0.1218650E-02)
 number of electron      76.0000016 magnetization 
 augmentation part       -1.7199503 magnetization 

 Broyden mixing:
  rms(total) = 0.85200E-02    rms(broyden)= 0.84906E-02
  rms(prec ) = 0.10725E-01
  weight for this iteration     100.00

 eigenvalues of (default mixing * dielectric matrix)
  average eigenvalue GAMMA=   1.6437
  2.3990  2.3990  1.8416  1.1659  1.1659  0.8906

 Free energy of the ion-electron system (eV)
  ---------------------------------------------------
  alpha Z        PSCENC =        68.76289450
  Ewald energy   TEWEN  =     -2670.72799355
  -Hartree energ DENC   =      -727.17373214
  -exchange      EXHF   =         0.00000000
  -V(xc)+E(xc)   XCENC  =       185.05933553
  PAW double counting   =      8045.61597869    -8096.22360591
  entropy T*S    EENTRO =         0.00000000
  eigenvalues    EBANDS =      -642.32988718
  atomic energy  EATOM  =      3769.08782378
  Solvation  Ediel_sol  =         0.00000000
  ---------------------------------------------------
  free energy    TOTEN  =       -67.92918629 eV

  energy without entropy =      -67.92918629  energy(sigma->0) =      -67.92918629


--------------------------------------------------------------------------------------------------------




--------------------------------------- Iteration      1(  12)  ---------------------------------------


    POTLOK:  cpu time    0.0033: real time    0.0033
    SETDIJ:  cpu time    0.0010: real time    0.0010
    EDDIAG:  cpu time    0.0501: real time    0.0501
  RMM-DIIS:  cpu time    0.1031: real time    0.1031
    ORTHCH:  cpu time    0.0068: real time    0.0068
 BZINTS: Fermi energy:  4.640676; 76.000000 electrons
         Band energy:-642.134535;  BLOECHL correction:  0.000000
       DOS:  cpu time    0.0013: real time    0.0013
    CHARGE:  cpu time    0.0149: real time    0.0149
    MIXING:  cpu time    0.0005: real time    0.0005
    --------------------------------------------
      LOOP:  cpu time    0.1809: real time    0.1809

 eigenvalue-minimisations  :  1140
 total energy-change (2. order) :-0.5751699E-03  (-0.7472550E-03)
 number of electron      76.0000016 magnetization 
 augmentation part       -1.7221575 magnetization 

 Broyden mixing:
  rms(total) = 0.33282E-02    rms(broyden)= 0.32792E-02
  rms(prec ) = 0.44591E-02
  weight for this iteration     100.00

 eigenvalues of (default mixing * dielectric matrix)
  average eigenvalue GAMMA=   1.5214
  2.4852  2.4852  1.7283  1.2497  1.2497  0.8665  0.5856

 Free energy of the ion-electron system (eV)
  ---------------------------------------------------
  alpha Z        PSCENC =        68.76289450
  Ewald energy   TEWEN  =     -2670.72799355
  -Hartree energ DENC   =      -727.38971303
  -exchange      EXHF   =         0.00000000
  -V(xc)+E(xc)   XCENC  =       185.07524606
  PAW double counting   =      8033.98826309    -8084.59174757
  entropy T*S    EENTRO =         0.00000000
  eigenvalues    EBANDS =      -642.13453474
  atomic energy  EATOM  =      3769.08782378
  Solvation  Ediel_sol  =         0.00000000
  ---------------------------------------------------
  free energy    TOTEN  =       -67.92976146 eV

  energy without entropy =      -67.92976146  energy(sigma->0) =      -67.92976146


--------------------------------------------------------------------------------------------------------




--------------------------------------- Iteration      1(  13)  ---------------------------------------


    POTLOK:  cpu time    0.0031: real time    0.0034
    SETDIJ:  cpu time    0.0010: real time    0.0010
    EDDIAG:  cpu time    0.0486: real time    0.0486
  RMM-DIIS:  cpu time    0.1033: real time    0.1033
    ORTHCH:  cpu time    0.0068: real time    0.0068
 BZINTS: Fermi energy:  4.637018; 76.000000 electrons
         Band energy:-642.174521;  BLOECHL correction:  0.000000
       DOS:  cpu time    0.0013: real time    0.0013
    CHARGE:  cpu time    0.0148: real time    0.0148
    MIXING:  cpu time    0.0005: real time    0.0005
    --------------------------------------------
      LOOP:  cpu time    0.1792: real time    0.1795

 eigenvalue-minimisations  :  1124
 total energy-change (2. order) :-0.4141718E-03  (-0.4581415E-03)
 number of electron      76.0000016 magnetization 
 augmentation part       -1.7250499 magnetization 

 Broyden mixing:
  rms(total) = 0.27534E-02    rms(broyden)= 0.27240E-02
  rms(prec ) = 0.31585E-02
  weight for this iteration     100.00

 eigenvalues of (default mixing * dielectric matrix)
  average eigenvalue GAMMA=   1.6892
  3.2052  2.3478  2.3478  1.3679  1.3679  0.9220  0.9777  0.9777

 Free energy of the ion-electron system (eV)
  ---------------------------------------------------
  alpha Z        PSCENC =        68.76289450
  Ewald energy   TEWEN  =     -2670.72799355
  -Hartree energ DENC   =      -727.37170840
  -exchange      EXHF   =         0.00000000
  -V(xc)+E(xc)   XCENC  =       185.07573780
  PAW double counting   =      8031.90184707    -8082.48425609
  entropy T*S    EENTRO =         0.00000000
  eigenvalues    EBANDS =      -642.17452074
  atomic energy  EATOM  =      3769.08782378
  Solvation  Ediel_sol  =         0.00000000
  ---------------------------------------------------
  free energy    TOTEN  =       -67.93017563 eV

  energy without entropy =      -67.93017563  energy(sigma->0) =      -67.93017563


--------------------------------------------------------------------------------------------------------




--------------------------------------- Iteration      1(  14)  ---------------------------------------


    POTLOK:  cpu time    0.0032: real time    0.0035
    SETDIJ:  cpu time    0.0010: real time    0.0010
    EDDIAG:  cpu time    0.0494: real time    0.0494
  RMM-DIIS:  cpu time    0.0904: real time    0.0904
    ORTHCH:  cpu time    0.0068: real time    0.0068
 BZINTS: Fermi energy:  4.634043; 76.000000 electrons
         Band energy:-642.112536;  BLOECHL correction:  0.000000
       DOS:  cpu time    0.0013: real time    0.0013
    CHARGE:  cpu time    0.0149: real time    0.0149
    MIXING:  cpu time    0.0005: real time    0.0005
    --------------------------------------------
      LOOP:  cpu time    0.1674: real time    0.1677

 eigenvalue-minimisations  :  1002
 total energy-change (2. order) :-0.2601751E-03  (-0.2694106E-03)
 number of electron      76.0000016 magnetization 
 augmentation part       -1.7265697 magnetization 

 Broyden mixing:
  rms(total) = 0.21424E-02    rms(broyden)= 0.21213E-02
  rms(prec ) = 0.30459E-02
  weight for this iteration     100.00

 eigenvalues of (default mixing * dielectric matrix)
  average eigenvalue GAMMA=   1.7370
  3.5092  2.9527  2.4217  1.5101  1.5101  1.0562  1.0562  0.9409  0.6755

 Free energy of the ion-electron system (eV)
  ---------------------------------------------------
  alpha Z        PSCENC =        68.76289450
  Ewald energy   TEWEN  =     -2670.72799355
  -Hartree energ DENC   =      -727.46024210
  -exchange      EXHF   =         0.00000000
  -V(xc)+E(xc)   XCENC  =       185.08446336
  PAW double counting   =      8035.57922648    -8086.14407246
  entropy T*S    EENTRO =         0.00000000
  eigenvalues    EBANDS =      -642.11253582
  atomic energy  EATOM  =      3769.08782378
  Solvation  Ediel_sol  =         0.00000000
  ---------------------------------------------------
  free energy    TOTEN  =       -67.93043581 eV

  energy without entropy =      -67.93043581  energy(sigma->0) =      -67.93043581


--------------------------------------------------------------------------------------------------------




--------------------------------------- Iteration      1(  15)  ---------------------------------------


    POTLOK:  cpu time    0.0032: real time    0.0035
    SETDIJ:  cpu time    0.0009: real time    0.0009
    EDDIAG:  cpu time    0.0487: real time    0.0487
  RMM-DIIS:  cpu time    0.0954: real time    0.0954
    ORTHCH:  cpu time    0.0068: real time    0.0068
 BZINTS: Fermi energy:  4.630715; 76.000000 electrons
         Band energy:-642.142898;  BLOECHL correction:  0.000000
       DOS:  cpu time    0.0012: real time    0.0012
    CHARGE:  cpu time    0.0147: real time    0.0147
    MIXING:  cpu time    0.0006: real time    0.0006
    --------------------------------------------
      LOOP:  cpu time    0.1716: real time    0.1719

 eigenvalue-minimisations  :  1057
 total energy-change (2. order) :-0.1397037E-03  (-0.1608622E-03)
 number of electron      76.0000016 magnetization 
 augmentation part       -1.7278087 magnetization 

 Broyden mixing:
  rms(total) = 0.73729E-03    rms(broyden)= 0.71096E-03
  rms(prec ) = 0.96669E-03
  weight for this iteration     100.00

 eigenvalues of (default mixing * dielectric matrix)
  average eigenvalue GAMMA=   1.6815
  3.9199  2.5091  2.5091  1.6406  1.6406  1.0829  1.0829  0.9052  0.7625  0.7625

 Free energy of the ion-electron system (eV)
  ---------------------------------------------------
  alpha Z        PSCENC =        68.76289450
  Ewald energy   TEWEN  =     -2670.72799355
  -Hartree energ DENC   =      -727.45616859
  -exchange      EXHF   =         0.00000000
  -V(xc)+E(xc)   XCENC  =       185.08569369
  PAW double counting   =      8036.07497658    -8086.61490357
  entropy T*S    EENTRO =         0.00000000
  eigenvalues    EBANDS =      -642.14289835
  atomic energy  EATOM  =      3769.08782378
  Solvation  Ediel_sol  =         0.00000000
  ---------------------------------------------------
  free energy    TOTEN  =       -67.93057551 eV

  energy without entropy =      -67.93057551  energy(sigma->0) =      -67.93057551


--------------------------------------------------------------------------------------------------------




--------------------------------------- Iteration      1(  16)  ---------------------------------------


    POTLOK:  cpu time    0.0031: real time    0.0034
    SETDIJ:  cpu time    0.0009: real time    0.0009
    EDDIAG:  cpu time    0.0493: real time    0.0493
  RMM-DIIS:  cpu time    0.0911: real time    0.0911
    ORTHCH:  cpu time    0.0068: real time    0.0068
 BZINTS: Fermi energy:  4.627624; 76.000000 electrons
         Band energy:-642.152623;  BLOECHL correction:  0.000000
       DOS:  cpu time    0.0013: real time    0.0013
    CHARGE:  cpu time    0.0147: real time    0.0147
    MIXING:  cpu time    0.0006: real time    0.0006
    --------------------------------------------
      LOOP:  cpu time    0.1678: real time    0.1681

 eigenvalue-minimisations  :   994
 total energy-change (2. order) :-0.1181246E-03  (-0.1254183E-03)
 number of electron      76.0000016 magnetization 
 augmentation part       -1.7289419 magnetization 

 Broyden mixing:
  rms(total) = 0.74081E-03    rms(broyden)= 0.71825E-03
  rms(prec ) = 0.90163E-03
  weight for this iteration     100.00

 eigenvalues of (default mixing * dielectric matrix)
  average eigenvalue GAMMA=   1.5355
  3.9456  2.5109  2.5109  1.6449  1.6449  1.0839  1.0839  0.9031  0.7622  0.7622
  0.0377

 Free energy of the ion-electron system (eV)
  ---------------------------------------------------
  alpha Z        PSCENC =        68.76289450
  Ewald energy   TEWEN  =     -2670.72799355
  -Hartree energ DENC   =      -727.44929313
  -exchange      EXHF   =         0.00000000
  -V(xc)+E(xc)   XCENC  =       185.08554269
  PAW double counting   =      8036.22850905    -8086.76555389
  entropy T*S    EENTRO =         0.00000000
  eigenvalues    EBANDS =      -642.15262309
  atomic energy  EATOM  =      3769.08782378
  Solvation  Ediel_sol  =         0.00000000
  ---------------------------------------------------
  free energy    TOTEN  =       -67.93069364 eV

  energy without entropy =      -67.93069364  energy(sigma->0) =      -67.93069364


--------------------------------------------------------------------------------------------------------




--------------------------------------- Iteration      1(  17)  ---------------------------------------


    POTLOK:  cpu time    0.0031: real time    0.0034
    SETDIJ:  cpu time    0.0010: real time    0.0010
    EDDIAG:  cpu time    0.0538: real time    0.0538
  RMM-DIIS:  cpu time    0.0812: real time    0.0812
    ORTHCH:  cpu time    0.0067: real time    0.0067
 BZINTS: Fermi energy:  4.624674; 76.000000 electrons
         Band energy:-642.152998;  BLOECHL correction:  0.000000
       DOS:  cpu time    0.0012: real time    0.0013
    CHARGE:  cpu time    0.0147: real time    0.0147
    MIXING:  cpu time    0.0006: real time    0.0006
    --------------------------------------------
      LOOP:  cpu time    0.1624: real time    0.1627

 eigenvalue-minimisations  :   882
 total energy-change (2. order) :-0.5392990E-04  (-0.5603887E-04)
 number of electron      76.0000016 magnetization 
 augmentation part       -1.7295373 magnetization 

 Broyden mixing:
  rms(total) = 0.85321E-03    rms(broyden)= 0.84555E-03
  rms(prec ) = 0.11315E-02
  weight for this iteration     100.00

 eigenvalues of (default mixing * dielectric matrix)
  average eigenvalue GAMMA=   1.4141
  3.8794  2.5016  2.5016  1.6387  1.6387  1.0828  1.0828  0.9014  0.7712  0.7712
  0.1118  0.0877

 Free energy of the ion-electron system (eV)
  ---------------------------------------------------
  alpha Z        PSCENC =        68.76289450
  Ewald energy   TEWEN  =     -2670.72799355
  -Hartree energ DENC   =      -727.44998047
  -exchange      EXHF   =         0.00000000
  -V(xc)+E(xc)   XCENC  =       185.08564666
  PAW double counting   =      8036.23521160    -8086.77135231
  entropy T*S    EENTRO =         0.00000000
  eigenvalues    EBANDS =      -642.15299778
  atomic energy  EATOM  =      3769.08782378
  Solvation  Ediel_sol  =         0.00000000
  ---------------------------------------------------
  free energy    TOTEN  =       -67.93074757 eV

  energy without entropy =      -67.93074757  energy(sigma->0) =      -67.93074757


--------------------------------------------------------------------------------------------------------




--------------------------------------- Iteration      1(  18)  ---------------------------------------


    POTLOK:  cpu time    0.0031: real time    0.0034
    SETDIJ:  cpu time    0.0009: real time    0.0009
    EDDIAG:  cpu time    0.0491: real time    0.0491
  RMM-DIIS:  cpu time    0.0808: real time    0.0808
    ORTHCH:  cpu time    0.0067: real time    0.0067
 BZINTS: Fermi energy:  4.621822; 76.000000 electrons
         Band energy:-642.153048;  BLOECHL correction:  0.000000
       DOS:  cpu time    0.0012: real time    0.0012
    CHARGE:  cpu time    0.0149: real time    0.0149
    MIXING:  cpu time    0.0006: real time    0.0006
    --------------------------------------------
      LOOP:  cpu time    0.1574: real time    0.1576

 eigenvalue-minimisations  :   864
 total energy-change (2. order) :-0.3474407E-04  (-0.3842725E-04)
 number of electron      76.0000016 magnetization 
 augmentation part       -1.7299985 magnetization 

 Broyden mixing:
  rms(total) = 0.11347E-02    rms(broyden)= 0.11319E-02
  rms(prec ) = 0.15093E-02
  weight for this iteration     100.00

 eigenvalues of (default mixing * dielectric matrix)
  average eigenvalue GAMMA=   1.3237
  3.9274  2.4941  2.4941  1.6351  1.6351  1.0838  1.0838  0.9016  0.7763  0.7763
  0.2246  0.0876  0.0876

 Free energy of the ion-electron system (eV)
  ---------------------------------------------------
  alpha Z        PSCENC =        68.76289450
  Ewald energy   TEWEN  =     -2670.72799355
  -Hartree energ DENC   =      -727.44889134
  -exchange      EXHF   =         0.00000000
  -V(xc)+E(xc)   XCENC  =       185.08545469
  PAW double counting   =      8036.17689438    -8086.71391672
  entropy T*S    EENTRO =         0.00000000
  eigenvalues    EBANDS =      -642.15304805
  atomic energy  EATOM  =      3769.08782378
  Solvation  Ediel_sol  =         0.00000000
  ---------------------------------------------------
  free energy    TOTEN  =       -67.93078231 eV

  energy without entropy =      -67.93078231  energy(sigma->0) =      -67.93078231


--------------------------------------------------------------------------------------------------------




--------------------------------------- Iteration      1(  19)  ---------------------------------------


    POTLOK:  cpu time    0.0031: real time    0.0034
    SETDIJ:  cpu time    0.0009: real time    0.0009
    EDDIAG:  cpu time    0.0485: real time    0.0485
  RMM-DIIS:  cpu time    0.0731: real time    0.0731
    ORTHCH:  cpu time    0.0067: real time    0.0067
 BZINTS: Fermi energy:  4.619048; 76.000000 electrons
         Band energy:-642.153183;  BLOECHL correction:  0.000000
       DOS:  cpu time    0.0012: real time    0.0012
    CHARGE:  cpu time    0.0148: real time    0.0148
    MIXING:  cpu time    0.0006: real time    0.0006
    --------------------------------------------
      LOOP:  cpu time    0.1490: real time    0.1493

 eigenvalue-minimisations  :   776
 total energy-change (2. order) :-0.1676489E-04  (-0.2020502E-04)
 number of electron      76.0000016 magnetization 
 augmentation part       -1.7302483 magnetization 

 Broyden mixing:
  rms(total) = 0.12327E-02    rms(broyden)= 0.12318E-02
  rms(prec ) = 0.16383E-02
  weight for this iteration     100.00

 eigenvalues of (default mixing * dielectric matrix)
  average eigenvalue GAMMA=   1.2524
  3.9345  2.4996  2.4996  1.6452  1.6452  1.0828  1.0828  0.9069  0.7759  0.7759
  0.2198  0.2198  0.1227  0.1227

 Free energy of the ion-electron system (eV)
  ---------------------------------------------------
  alpha Z        PSCENC =        68.76289450
  Ewald energy   TEWEN  =     -2670.72799355
  -Hartree energ DENC   =      -727.44877353
  -exchange      EXHF   =         0.00000000
  -V(xc)+E(xc)   XCENC  =       185.08544243
  PAW double counting   =      8036.24766196    -8086.78467150
  entropy T*S    EENTRO =         0.00000000
  eigenvalues    EBANDS =      -642.15318316
  atomic energy  EATOM  =      3769.08782378
  Solvation  Ediel_sol  =         0.00000000
  ---------------------------------------------------
  free energy    TOTEN  =       -67.93079908 eV

  energy without entropy =      -67.93079908  energy(sigma->0) =      -67.93079908


--------------------------------------------------------------------------------------------------------




--------------------------------------- Iteration      1(  20)  ---------------------------------------


    POTLOK:  cpu time    0.0031: real time    0.0034
    SETDIJ:  cpu time    0.0010: real time    0.0010
    EDDIAG:  cpu time    0.0491: real time    0.0491
  RMM-DIIS:  cpu time    0.0679: real time    0.0679
    ORTHCH:  cpu time    0.0068: real time    0.0067
 BZINTS: Fermi energy:  4.616351; 76.000000 electrons
         Band energy:-642.153001;  BLOECHL correction:  0.000000
       DOS:  cpu time    0.0012: real time    0.0012
    --------------------------------------------
      LOOP:  cpu time    0.1291: real time    0.1294

 eigenvalue-minimisations  :   705
 total energy-change (2. order) :-0.7960681E-05  (-0.1138139E-04)
 number of electron      76.0000016 magnetization 
 augmentation part       -1.7302483 magnetization 

 Free energy of the ion-electron system (eV)
  ---------------------------------------------------
  alpha Z        PSCENC =        68.76289450
  Ewald energy   TEWEN  =     -2670.72799355
  -Hartree energ DENC   =      -727.44895370
  -exchange      EXHF   =         0.00000000
  -V(xc)+E(xc)   XCENC  =       185.08544607
  PAW double counting   =      8036.24359876    -8086.78062154
  entropy T*S    EENTRO =         0.00000000
  eigenvalues    EBANDS =      -642.15300135
  atomic energy  EATOM  =      3769.08782378
  Solvation  Ediel_sol  =         0.00000000
  ---------------------------------------------------
  free energy    TOTEN  =       -67.93080704 eV

  energy without entropy =      -67.93080704  energy(sigma->0) =      -67.93080704


--------------------------------------------------------------------------------------------------------




 average (electrostatic) potential at core
  the test charge radii are     0.9587  0.9698  0.7079
  (the norm of the test charge is              1.0000)
       1 -87.4194       2 -87.4194       3 -87.7015       4 -87.7015       5 -87.7015
       6 -87.7015       7 -87.9560       8 -87.9560       9 -87.6246      10 -87.6246
      11 -65.3059      12 -65.3059      13 -64.6302      14 -64.6302      15 -64.6302
      16 -64.6302
 
 
 
 E-fermi :   4.6164     XC(G=0):  -9.1115     alpha+bet :-10.5243


 k-point     1 :       0.1250    0.1250    0.1250
  band No.  band energies     occupation 
      1     -42.4609      2.00000
      2     -42.4607      2.00000
      3     -41.7650      2.00000
      4     -41.7649      2.00000
      5     -41.7639      2.00000
      6     -41.7636      2.00000
      7     -12.2118      2.00000
      8     -11.6693      2.00000
      9      -9.8127      2.00000
     10      -8.9933      2.00000
     11      -8.9704      2.00000
     12      -8.7847      2.00000
     13      -8.7628      2.00000
     14      -8.1759      2.00000
     15      -5.8944      2.00000
     16      -4.0668      2.00000
     17      -2.7752      2.00000
     18      -2.1194      2.00000
     19      -1.8161      2.00000
     20      -1.6398      2.00000
     21      -1.3559      2.00000
     22      -1.2686      2.00000
     23      -0.4765      2.00000
     24      -0.1537      2.00000
     25       0.3918      2.00000
     26       0.5090      2.00000
     27       0.7921      2.00000
     28       1.0769      2.00000
     29       1.3458      2.00000
     30       1.4240      2.00000
     31       2.2136      2.00000
     32       2.4215      2.00000
     33       2.5736      2.00000
     34       2.6659      2.00000
     35       2.8322      2.00000
     36       3.0943      2.00000
     37       4.0783      2.00000
     38       4.3375      2.00000
     39       4.8056      0.00000
     40       5.1286      0.00000
     41       6.0306      0.00000
     42       6.6951      0.00000
     43       7.0387      0.00000
     44       7.3297      0.00000
     45       7.6365      0.00000
     46       7.7483      0.00000
     47       7.8528      0.00000
     48       8.1768      0.00000

 k-point     2 :       0.3750    0.1250    0.1250
  band No.  band energies     occupation 
      1     -42.4608      2.00000
      2     -42.4607      2.00000
      3     -41.7649      2.00000
      4     -41.7648      2.00000
      5     -41.7638      2.00000
      6     -41.7637      2.00000
      7     -12.0668      2.00000
      8     -11.8415      2.00000
      9      -9.7232      2.00000
     10      -9.4035      2.00000
     11      -8.9191      2.00000
     12      -8.8405      2.00000
     13      -8.4354      2.00000
     14      -8.1604      2.00000
     15      -5.3435      2.00000
     16      -4.5694      2.00000
     17      -2.6737      2.00000
     18      -2.3295      2.00000
     19      -1.8883      2.00000
     20      -1.8131      2.00000
     21      -1.5007      2.00000
     22      -1.4270      2.00000
     23      -0.1244      2.00000
     24      -0.0216      2.00000
     25       0.1433      2.00000
     26       0.3628      2.00000
     27       0.6233      2.00000
     28       0.9180      2.00000
     29       1.7341      2.00000
     30       1.9053      2.00000
     31       2.1504      2.00000
     32       2.2773      2.00000
     33       2.6810      2.00000
     34       2.7585      2.00000
     35       3.1825      2.00000
     36       3.4991      2.00000
     37       3.8316      2.00000
     38       4.0063      2.00000
     39       5.1886      0.00000
     40       5.5549      0.00000
     41       5.9447      0.00000
     42       6.4453      0.00000
     43       6.8566      0.00000
     44       7.2448      0.00000
     45       7.6092      0.00000
     46       7.7053      0.00000
     47       8.0013      0.00000
     48       8.1127      0.00000

 k-point     3 :       0.1250    0.3750    0.1250
  band No.  band energies     occupation 
      1     -42.4609      2.00000
      2     -42.4607      2.00000
      3     -41.7650      2.00000
      4     -41.7649      2.00000
      5     -41.7638      2.00000
      6     -41.7636      2.00000
      7     -12.1992      2.00000
      8     -11.6646      2.00000
      9      -9.8518      2.00000
     10      -9.0158      2.00000
     11      -8.9547      2.00000
     12      -8.8103      2.00000
     13      -8.7559      2.00000
     14      -8.1684      2.00000
     15      -5.8378      2.00000
     16      -4.0623      2.00000
     17      -2.8046      2.00000
     18      -2.1394      2.00000
     19      -1.9065      2.00000
     20      -1.5461      2.00000
     21      -1.3446      2.00000
     22      -1.2483      2.00000
     23      -0.3879      2.00000
     24      -0.2266      2.00000
     25       0.4946      2.00000
     26       0.6396      2.00000
     27       0.7716      2.00000
     28       1.0980      2.00000
     29       1.2991      2.00000
     30       1.5225      2.00000
     31       1.9153      2.00000
     32       2.3773      2.00000
     33       2.5209      2.00000
     34       2.7322      2.00000
     35       2.8968      2.00000
     36       3.0152      2.00000
     37       4.2550      2.00000
     38       4.4685      2.00000
     39       4.9044      0.00000
     40       5.6387      0.00000
     41       6.0615      0.00000
     42       6.5059      0.00000
     43       6.6123      0.00000
     44       7.0884      0.00000
     45       7.2092      0.00000
     46       7.3424      0.00000
     47       7.4676      0.00000
     48       8.2222      0.00000

 k-point     4 :       0.3750    0.3750    0.1250
  band No.  band energies     occupation 
      1     -42.4608      2.00000
      2     -42.4607      2.00000
      3     -41.7649      2.00000
      4     -41.7649      2.00000
      5     -41.7638      2.00000
      6     -41.7637      2.00000
      7     -12.0553      2.00000
      8     -11.8330      2.00000
      9      -9.7583      2.00000
     10      -9.4384      2.00000
     11      -8.9265      2.00000
     12      -8.8569      2.00000
     13      -8.4068      2.00000
     14      -8.1393      2.00000
     15      -5.3099      2.00000
     16      -4.5541      2.00000
     17      -2.7077      2.00000
     18      -2.3859      2.00000
     19      -1.8680      2.00000
     20      -1.7660      2.00000
     21      -1.5020      2.00000
     22      -1.4166      2.00000
     23      -0.1129      2.00000
     24      -0.0572      2.00000
     25       0.2576      2.00000
     26       0.4496      2.00000
     27       0.6923      2.00000
     28       0.9177      2.00000
     29       1.5927      2.00000
     30       1.7100      2.00000
     31       2.2466      2.00000
     32       2.4131      2.00000
     33       2.6181      2.00000
     34       2.7896      2.00000
     35       3.1461      2.00000
     36       3.5247      2.00000
     37       3.9050      2.00000
     38       4.0996      2.00000
     39       5.2104      0.00000
     40       5.4899      0.00000
     41       6.0036      0.00000
     42       6.4838      0.00000
     43       6.8300      0.00000
     44       7.0631      0.00000
     45       7.2200      0.00000
     46       7.4964      0.00000
     47       7.6906      0.00000
     48       8.0532      0.00000

 k-point     5 :       0.1250    0.1250    0.3750
  band No.  band energies     occupation 
      1     -42.4608      2.00000
      2     -42.4607      2.00000
      3     -41.7650      2.00000
      4     -41.7649      2.00000
      5     -41.7638      2.00000
      6     -41.7637      2.00000
      7     -12.0126      2.00000
      8     -11.7662      2.00000
      9      -9.8406      2.00000
     10      -9.4823      2.00000
     11      -8.9136      2.00000
     12      -8.8290      2.00000
     13      -8.5709      2.00000
     14      -8.3633      2.00000
     15      -5.0525      2.00000
     16      -4.2043      2.00000
     17      -2.8445      2.00000
     18      -2.4216      2.00000
     19      -1.6845      2.00000
     20      -1.6117      2.00000
     21      -0.9386      2.00000
     22      -0.8607      2.00000
     23      -0.4116      2.00000
     24      -0.3033      2.00000
     25       0.3379      2.00000
     26       0.4948      2.00000
     27       0.6967      2.00000
     28       0.9578      2.00000
     29       1.1120      2.00000
     30       1.2331      2.00000
     31       1.8316      2.00000
     32       2.1079      2.00000
     33       2.4460      2.00000
     34       2.7465      2.00000
     35       2.8223      2.00000
     36       3.0675      2.00000
     37       4.3869      2.00000
     38       4.5663      2.00000
     39       4.8986      0.00000
     40       5.1398      0.00000
     41       5.9742      0.00000
     42       6.4202      0.00000
     43       6.9181      0.00000
     44       7.0371      0.00000
     45       7.2285      0.00000
     46       7.6250      0.00000
     47       8.0946      0.00000
     48       8.3145      0.00000

 k-point     6 :       0.3750    0.1250    0.3750
  band No.  band energies     occupation 
      1     -42.4608      2.00000
      2     -42.4608      2.00000
      3     -41.7649      2.00000
      4     -41.7648      2.00000
      5     -41.7638      2.00000
      6     -41.7638      2.00000
      7     -11.9195      2.00000
      8     -11.8121      2.00000
      9      -9.9360      2.00000
     10      -9.7928      2.00000
     11      -8.8741      2.00000
[...]
     17      -2.5180      2.00000
     18      -2.2874      2.00000
     19      -2.1888      2.00000
     20      -2.0396      2.00000
     21      -1.8108      2.00000
     22      -1.7206      2.00000
     23      -0.0480      2.00000
     24       0.0600      2.00000
     25       0.3901      2.00000
     26       0.4834      2.00000
     27       0.5824      2.00000
     28       0.7945      2.00000
     29       1.0839      2.00000
     30       1.2550      2.00000
     31       1.5427      2.00000
     32       1.7037      2.00000
     33       1.8854      2.00000
     34       2.0337      2.00000
     35       2.1780      2.00000
     36       2.3006      2.00000
     37       2.4468      2.00000
     38       2.6578      2.00000
     39       5.6332      0.00000
     40       6.1609      0.00000
     41       6.5838      0.00000
     42       6.6145      0.00000
     43       6.9299      0.00000
     44       7.0635      0.00000
     45       7.1923      0.00000
     46       7.5389      0.00000
     47       8.5359      0.00000
     48       8.6008      0.00000

 k-point     4 :       0.3750    0.3750    0.1250
  band No.  band energies     occupation 
      1     -41.3459      2.00000
      2     -41.3458      2.00000
      3     -40.6904      2.00000
      4     -40.6904      2.00000
      5     -40.6897      2.00000
      6     -40.6896      2.00000
      7     -12.2756      2.00000
      8     -12.2309      2.00000
      9      -9.4453      2.00000
     10      -9.4234      2.00000
     11      -9.2316      2.00000
     12      -9.1372      2.00000
     13      -8.9737      2.00000
     14      -8.9313      2.00000
     15      -5.0252      2.00000
     16      -4.8444      2.00000
     17      -2.4188      2.00000
     18      -2.3178      2.00000
     19      -2.1573      2.00000
     20      -2.1098      2.00000
     21      -1.7735      2.00000
     22      -1.7111      2.00000
     23      -0.0180      2.00000
     24       0.0873      2.00000
     25       0.1965      2.00000
     26       0.4073      2.00000
     27       0.6906      2.00000
     28       0.7675      2.00000
     29       0.9625      2.00000
     30       1.1900      2.00000
     31       1.5666      2.00000
     32       1.6603      2.00000
     33       1.8820      2.00000
     34       2.0273      2.00000
     35       2.1473      2.00000
     36       2.2499      2.00000
     37       2.5209      2.00000
     38       2.6519      2.00000
     39       5.8214      0.00000
     40       6.0711      0.00000
     41       6.6799      0.00000
     42       6.7913      0.00000
     43       7.0457      0.00000
     44       7.1808      0.00000
     45       7.4463      0.00000
     46       7.5673      0.00000
     47       8.6315      0.00000
     48       8.7048      0.00000

 k-point     5 :       0.1250    0.1250    0.3750
  band No.  band energies     occupation 
      1     -41.3459      2.00000
      2     -41.3459      2.00000
      3     -40.6906      2.00000
      4     -40.6905      2.00000
      5     -40.6896      2.00000
      6     -40.6895      2.00000
      7     -12.2730      2.00000
      8     -12.1935      2.00000
      9      -9.4282      2.00000
     10      -9.3345      2.00000
     11      -9.2630      2.00000
     12      -9.1628      2.00000
     13      -9.0636      2.00000
     14      -9.0347      2.00000
     15      -5.1039      2.00000
     16      -4.8347      2.00000
     17      -2.2143      2.00000
     18      -2.1028      2.00000
     19      -2.0313      2.00000
     20      -1.9258      2.00000
     21      -1.8812      2.00000
     22      -1.7469      2.00000
     23       0.0130      2.00000
     24       0.0871      2.00000
     25       0.1757      2.00000
     26       0.3486      2.00000
     27       0.4769      2.00000
     28       0.6506      2.00000
     29       1.1038      2.00000
     30       1.3539      2.00000
     31       1.5473      2.00000
     32       1.6643      2.00000
     33       1.8183      2.00000
     34       2.0069      2.00000
     35       2.1524      2.00000
     36       2.3007      2.00000
     37       2.4802      2.00000
     38       2.6636      2.00000
     39       5.4280      0.00000
     40       5.8205      0.00000
     41       6.4689      0.00000
     42       6.5976      0.00000
     43       7.1344      0.00000
     44       7.2604      0.00000
     45       7.3960      0.00000
     46       7.5297      0.00000
     47       8.3639      0.00000
     48       8.6919      0.00000

 k-point     6 :       0.3750    0.1250    0.3750
  band No.  band energies     occupation 
      1     -41.3458      2.00000
      2     -41.3458      2.00000
      3     -40.6904      2.00000
      4     -40.6903      2.00000
      5     -40.6897      2.00000
      6     -40.6896      2.00000
      7     -12.2481      2.00000
      8     -12.2151      2.00000
      9      -9.4579      2.00000
     10      -9.4138      2.00000
     11      -9.2098      2.00000
     12      -9.1797      2.00000
     13      -9.0296      2.00000
     14      -8.9988      2.00000
     15      -5.0214      2.00000
     16      -4.9094      2.00000
     17      -2.2555      2.00000
     18      -2.2198      2.00000
     19      -1.9853      2.00000
     20      -1.8841      2.00000
     21      -1.7634      2.00000
     22      -1.7229      2.00000
     23       0.0186      2.00000
     24       0.0464      2.00000
     25       0.3082      2.00000
     26       0.4295      2.00000
     27       0.5813      2.00000
     28       0.7078      2.00000
     29       1.1178      2.00000
     30       1.1863      2.00000
     31       1.4724      2.00000
     32       1.5600      2.00000
     33       1.7791      2.00000
     34       1.8246      2.00000
     35       1.9652      2.00000
     36       2.0573      2.00000
     37       2.5695      2.00000
     38       2.6924      2.00000
     39       5.5995      0.00000
     40       5.7704      0.00000
     41       6.7168      0.00000
     42       6.8703      0.00000
     43       7.0986      0.00000
     44       7.2208      0.00000
     45       7.4984      0.00000
     46       7.6516      0.00000
     47       8.4306      0.00000
     48       8.7354      0.00000

 k-point     7 :       0.1250    0.3750    0.3750
  band No.  band energies     occupation 
      1     -41.3459      2.00000
      2     -41.3459      2.00000
      3     -40.6906      2.00000
      4     -40.6905      2.00000
      5     -40.6896      2.00000
      6     -40.6895      2.00000
      7     -12.2341      2.00000
      8     -12.1870      2.00000
      9      -9.4309      2.00000
     10      -9.3880      2.00000
     11      -9.2817      2.00000
     12      -9.2187      2.00000
     13      -9.1029      2.00000
     14      -9.0511      2.00000
     15      -4.9236      2.00000
     16      -4.7366      2.00000
     17      -2.1954      2.00000
     18      -2.1597      2.00000
     19      -2.0636      2.00000
     20      -1.9829      2.00000
     21      -1.7715      2.00000
     22      -1.6179      2.00000
     23      -0.0405      2.00000
     24       0.2137      2.00000
     25       0.3142      2.00000
     26       0.4790      2.00000
     27       0.6410      2.00000
     28       0.7655      2.00000
     29       0.9513      2.00000
     30       1.0447      2.00000
     31       1.1986      2.00000
     32       1.3549      2.00000
     33       1.7427      2.00000
     34       2.0959      2.00000
     35       2.2565      2.00000
     36       2.3555      2.00000
     37       2.4887      2.00000
     38       2.5447      2.00000
     39       5.5821      0.00000
     40       5.8989      0.00000
     41       6.5256      0.00000
     42       6.7739      0.00000
     43       6.8274      0.00000
     44       6.9900      0.00000
     45       7.1369      0.00000
     46       7.2594      0.00000
     47       8.5515      0.00000
     48       8.7358      0.00000

 k-point     8 :       0.3750    0.3750    0.3750
  band No.  band energies     occupation 
      1     -41.3458      2.00000
      2     -41.3458      2.00000
      3     -40.6904      2.00000
      4     -40.6904      2.00000
      5     -40.6897      2.00000
      6     -40.6896      2.00000
      7     -12.2188      2.00000
      8     -12.1993      2.00000
      9      -9.4127      2.00000
     10      -9.3972      2.00000
     11      -9.2932      2.00000
     12      -9.2550      2.00000
     13      -9.0816      2.00000
     14      -9.0536      2.00000
     15      -4.8348      2.00000
     16      -4.7562      2.00000
     17      -2.2054      2.00000
     18      -2.1616      2.00000
     19      -1.9916      2.00000
     20      -1.8928      2.00000
     21      -1.7718      2.00000
     22      -1.6879      2.00000
     23      -0.0953      2.00000
     24       0.0283      2.00000
     25       0.2895      2.00000
     26       0.3792      2.00000
     27       0.5943      2.00000
     28       0.6558      2.00000
     29       1.0530      2.00000
     30       1.1136      2.00000
     31       1.3599      2.00000
     32       1.4153      2.00000
     33       1.6815      2.00000
     34       1.8996      2.00000
     35       2.2387      2.00000
     36       2.2723      2.00000
     37       2.5228      2.00000
     38       2.6162      2.00000
     39       5.7486      0.00000
     40       5.9006      0.00000
     41       6.6627      0.00000
     42       6.7026      0.00000
     43       7.0073      0.00000
     44       7.1393      0.00000
     45       7.3190      0.00000
     46       7.4236      0.00000
     47       8.5787      0.00000
     48       8.7477      0.00000


--------------------------------------------------------------------------------------------------------


 soft charge-density along one line, spin component           1
         0         1         2         3         4         5         6         7         8         9
 total charge-density along one line
 
 pseudopotential strength for first ion, spin component:           1
 29.982  37.408   0.002  -0.002   0.000   0.003  -0.003   0.000
 37.408  46.678   0.002  -0.002   0.000   0.004  -0.003   0.000
  0.002   0.002   6.573   0.001  -0.000  10.179   0.001  -0.000
 -0.002  -0.002   0.001   6.573  -0.000   0.001  10.179  -0.000
  0.000   0.000  -0.000  -0.000   6.572  -0.000  -0.000  10.177
  0.003   0.004  10.179   0.001  -0.000  15.781   0.001  -0.000
 -0.003  -0.003   0.001  10.179  -0.000   0.001  15.781  -0.000
  0.000   0.000  -0.000  -0.000  10.177  -0.000  -0.000  15.778
 total augmentation occupancy for first ion, spin component:           1
 11.088  -6.403   0.094  -0.265   0.000  -0.027   0.119   0.000
 -6.403   4.176  -0.077   0.210   0.000   0.018  -0.088   0.000
  0.094  -0.077   4.342   0.089   0.000  -1.454  -0.044   0.000
 -0.265   0.210   0.089   4.538   0.000  -0.044  -1.537   0.000
  0.000   0.000   0.000   0.000   4.197   0.000   0.000  -1.375
 -0.027   0.018  -1.454  -0.044   0.000   0.526   0.021   0.000
  0.119  -0.088  -0.044  -1.537   0.000   0.021   0.563   0.000
  0.000   0.000   0.000   0.000  -1.375   0.000   0.000   0.491


------------------------ aborting loop because EDIFF is reached ----------------------------------------


    CHARGE:  cpu time    0.0208: real time    0.0208
    FORLOC:  cpu time    0.0008: real time    0.0008
    FORNL :  cpu time    0.0357: real time    0.0357
    STRESS:  cpu time    0.1028: real time    0.1028
    FORCOR:  cpu time    0.0032: real time    0.0032
    FORHAR:  cpu time    0.0024: real time    0.0024
    MIXING:  cpu time    0.0003: real time    0.0003
    OFIELD:  cpu time    0.0000: real time    0.0000

  FORCE on cell =-STRESS in cart. coord.  units (eV):
  Direction    XX          YY          ZZ          XY          YZ          ZX
  --------------------------------------------------------------------------------------
  Alpha Z    70.01285    70.01285    70.01285
  Ewald    -933.83094  -992.99369  -823.80918    -0.00000     0.00000    -0.00000
  Hartree   210.95588   173.77300   262.82464    -0.00000     0.00000     0.00000
  E(xc)    -277.14275  -277.06667  -277.12399     0.00000     0.00000     0.00000
  Local    -631.40261  -530.58986  -783.51934     0.00000    -0.00000    -0.00000
  n-local   610.44280   609.67198   610.25956    -0.46656     0.04506     0.01315
  augment   -43.66356   -43.19264   -42.71048     0.00000     0.00000     0.00000
  Kinetic   994.67835   990.27163   983.87140     0.01630    -0.07524     0.06322
  Fock        0.00000     0.00000     0.00000     0.00000     0.00000     0.00000
  -------------------------------------------------------------------------------------
  Total       0.05003    -0.11339    -0.19453     0.00000     0.00000     0.00000
  in kB       0.28440    -0.64456    -1.10583     0.00000     0.00000     0.00000
  external pressure =       -0.49 kB  Pullay stress =        0.00 kB


 VOLUME and BASIS-vectors are now :
 -----------------------------------------------------------------------------
  energy-cutoff  :      420.00
  volume of cell :      281.85
      direct lattice vectors                 reciprocal lattice vectors
     7.627822942  0.000000000  0.000000000     0.131099005  0.000000000  0.000000000
     0.000000000  6.188280246  0.000000000     0.000000000  0.161595784  0.000000000
     0.000000000  0.000000000  5.970955473     0.000000000  0.000000000  0.167477384

  length of vectors
     7.627822942  6.188280246  5.970955473     0.131099005  0.161595784  0.167477384


 FORCES acting on ions
    electron-ion (+dipol)            ewald-force                    non-local-force                 convergence-correction
 -----------------------------------------------------------------------------------------------
   -.910E-10 -.125E+02 -.168E+02   -.128E-08 0.121E+02 0.169E+02   0.000E+00 0.396E+00 -.756E-01   0.325E-12 0.235E-02 0.298E-03
   0.177E-08 0.125E+02 -.168E+02   0.407E-09 -.121E+02 0.169E+02   0.000E+00 -.396E+00 -.756E-01   -.232E-13 -.235E-02 0.298E-03
   -.675E+02 0.848E+01 0.935E+01   0.686E+02 -.983E+01 -.109E+02   -.110E+01 0.137E+01 0.154E+01   -.469E-03 0.185E-02 -.189E-02
   0.675E+02 -.848E+01 0.935E+01   -.686E+02 0.983E+01 -.109E+02   0.110E+01 -.137E+01 0.154E+01   0.469E-03 -.185E-02 -.189E-02
   -.675E+02 -.848E+01 0.935E+01   0.686E+02 0.983E+01 -.109E+02   -.110E+01 -.137E+01 0.154E+01   -.469E-03 -.185E-02 -.189E-02
   0.675E+02 0.848E+01 0.935E+01   -.686E+02 -.983E+01 -.109E+02   0.110E+01 0.137E+01 0.154E+01   0.469E-03 0.185E-02 -.189E-02
   0.383E-10 -.544E+02 0.487E+02   -.102E-08 0.559E+02 -.493E+02   0.000E+00 -.151E+01 0.598E+00   0.491E-13 -.103E-02 0.253E-02
   0.457E-08 0.544E+02 0.487E+02   0.616E-09 -.559E+02 -.493E+02   0.000E+00 0.151E+01 0.598E+00   -.418E-12 0.103E-02 0.253E-02
   0.755E-10 -.455E+02 -.507E+02   -.116E-08 0.475E+02 0.531E+02   0.000E+00 -.194E+01 -.240E+01   0.226E-12 0.204E-02 -.289E-02
   0.444E-08 0.455E+02 -.507E+02   0.584E-09 -.475E+02 0.531E+02   0.000E+00 0.194E+01 -.240E+01   0.242E-12 -.204E-02 -.289E-02
   -.540E-10 0.259E+02 0.150E+02   -.766E-09 -.252E+02 -.149E+02   0.000E+00 -.717E+00 -.167E+00   -.380E-12 -.471E-03 0.123E-02
   0.289E-08 -.259E+02 0.150E+02   0.276E-09 0.252E+02 -.149E+02   0.000E+00 0.717E+00 -.167E+00   -.334E-12 0.471E-03 0.123E-02
   0.959E+01 -.194E+02 -.874E+01   -.968E+01 0.188E+02 0.796E+01   0.795E-01 0.567E+00 0.782E+00   -.987E-03 -.383E-04 0.205E-02
   -.959E+01 0.194E+02 -.874E+01   0.968E+01 -.188E+02 0.796E+01   -.795E-01 -.567E+00 0.782E+00   0.987E-03 0.383E-04 0.205E-02
   0.959E+01 0.194E+02 -.874E+01   -.968E+01 -.188E+02 0.796E+01   0.795E-01 -.567E+00 0.782E+00   -.987E-03 0.383E-04 0.205E-02
   -.959E+01 -.194E+02 -.874E+01   0.968E+01 0.188E+02 0.796E+01   -.795E-01 0.567E+00 0.782E+00   0.987E-03 -.383E-04 0.205E-02
 -----------------------------------------------------------------------------------------------
   0.424E-07 -.104E-06 -.520E+01   0.355E-14 0.107E-13 0.222E-13   -.139E-16 0.111E-15 0.520E+01   -.579E-12 0.208E-11 0.296E-02
 
 
 POSITION                                       TOTAL-FORCE (eV/Angst)
 -----------------------------------------------------------------------------------
      0.00000      4.77307      2.46845         0.000000      0.001464      0.007019
      3.81391      1.41521      5.45393         0.000000     -0.001464      0.007019
      1.61540      3.73071      1.77014        -0.008278      0.016447      0.008796
      2.19852      2.45757      4.75562         0.008278     -0.016447      0.008796
      5.42931      2.45757      4.75562        -0.008278     -0.016447      0.008796
      6.01243      3.73071      1.77014         0.008278      0.016447      0.008796
      0.00000      0.39034      1.53432         0.000000     -0.034083      0.000312
      3.81391      5.79794      4.51980         0.000000      0.034083      0.000312
      0.00000     -1.14659      4.48020         0.000000     -0.001704     -0.011810
      3.81391      1.14659      1.49472         0.000000      0.001704     -0.011810
      0.00000      2.65999      0.05441         0.000000      0.018889     -0.004111
      3.81391      3.52829      3.03989         0.000000     -0.018889     -0.004111
      5.58261      4.76309      5.64312        -0.009139      0.001351     -0.004501
      5.85913      1.42519      2.65765         0.009139     -0.001351     -0.004501
      1.76870      1.42519      2.65765        -0.009139     -0.001351     -0.004501
      2.04521      4.76309      5.64312         0.009139      0.001351     -0.004501
 -----------------------------------------------------------------------------------
    total drift:                                0.000000     -0.000000      0.007879


--------------------------------------------------------------------------------------------------------



  FREE ENERGIE OF THE ION-ELECTRON SYSTEM (eV)
  ---------------------------------------------------
  free  energy   TOTEN  =       -76.86767559 eV

  energy  without entropy=      -76.86767559  energy(sigma->0) =      -76.86767559
 
 d Force = 0.8167072E-04[ 0.608E-04, 0.103E-03]  d Energy =-0.1987035E-04 0.102E-03
 d Force = 0.4332918E-01[ 0.432E-01, 0.435E-01]  d Ewald  =-0.7139638E+00 0.757E+00


--------------------------------------------------------------------------------------------------------


    POTLOK:  cpu time    0.0036: real time    0.0036


--------------------------------------------------------------------------------------------------------




--------------------------------------------------------------------------------------------------------


  
 reached required accuracy - stopping structural energy minimisation
     LOOP+:  cpu time    0.8329: real time    0.8646
    4ORBIT:  cpu time    0.0000: real time    0.0000
 BZINTS: Fermi energy:  2.849218; 76.000000 electrons
         Band energy:-652.841984;  BLOECHL correction:  0.000000

 total amount of memory used by VASP MPI-rank0    33907. kBytes
=======================================================================

   base      :      30000. kBytes
   nonlr-proj:       1301. kBytes
   fftplans  :        733. kBytes
   grid      :       1311. kBytes
   one-center:          3. kBytes
   wavefun   :        559. kBytes
 
  
  
 General timing and accounting informations for this job:
 ========================================================
  
                  Total CPU time used (sec):      103.146
                            User time (sec):      102.466
                          System time (sec):        0.680
                         Elapsed time (sec):      105.399
  
                   Maximum memory used (kb):      182928.
                   Average memory used (kb):           0.
  
                          Minor page faults:        72278
                          Major page faults:          108
                 Voluntary context switches:         3307
