<?xml version="1.0" encoding="ISO-8859-1"?>
<modeling>
 <generator>
  <i name="program" type="string">vasp </i>
  <i name="version" type="string">5.4.4.18Apr17-6-g9f103f2a35  </i>
  <i name="subversion" type="string">(build Feb 28 2020 14:15:47) complex            parallel </i>
  <i name="platform" type="string">LinuxIFC </i>
  <i name="date" type="string">2022 08 06 </i>
  <i name="time" type="string">17:37:50 </i>
 </generator>
 <incar>
  <i type="int" name="ISTART">     0</i>
  <i type="string" name="PREC">accurate</i>
  <i type="string" name="ALGO"> FAST</i>
  <i type="int" name="ISPIN">     1</i>
  <i type="int" name="ICHARG">     2</i>
  <i type="int" name="INIWAV">     1</i>
  <i type="int" name="NELM">   100</i>
  <i type="int" name="IBRION">     2</i>
  <i name="EDIFF">      0.00002000</i>
  <i name="EDIFFG">      0.00020000</i>
  <i type="int" name="NSW">   100</i>
  <i type="int" name="ISIF">     3</i>
  <i name="ENCUT">    420.00000000</i>
  <i type="string" name="LREAL"> AUTO</i>
  <i type="int" name="ISMEAR">    -5</i>
  <i type="logical" name="LWAVE"> F  </i>
  <i type="logical" name="LCHARG"> F  </i>
  <v type="int" name="KPOINT_BSE">    -1     0     0     0</v>
  <i type="int" name="NELM">   100</i>
 </incar>
 <structure name="primitive_cell" >
  <crystal>
   <varray name="basis" >
    <v>       7.44877288       0.00000000       0.00000000 </v>
    <v>       0.00000000       6.43206248       0.00000000 </v>
    <v>       0.00000000       0.00000000       5.98967227 </v>
   </varray>
   <i name="volume">    286.97102348 </i>
   <varray name="rec_basis" >
    <v>       0.13425030       0.00000000       0.00000000 </v>
    <v>       0.00000000       0.15547113       0.00000000 </v>
    <v>       0.00000000       0.00000000       0.16695404 </v>
   </varray>
  </crystal>
  <varray name="positions" >
   <v>       0.00000000      -0.07799338       0.42587935 </v>
   <v>       0.00000000       0.03227096      -0.25652296 </v>
   <v>       0.00000000       0.15813928       0.20028583 </v>
   <v>       0.22347338      -0.25419622       0.37542045 </v>
   <v>      -0.22347338      -0.25419622       0.37542045 </v>
   <v>       0.27759989       0.28955459       0.35966867 </v>
   <v>      -0.27759989       0.28955459       0.35966867 </v>
   <v>       0.22240011      -0.28955459      -0.14033133 </v>
   <v>      -0.22240011      -0.28955459      -0.14033133 </v>
   <v>       0.00000000       0.46770244       0.07310690 </v>
   <v>       0.50000000      -0.03227096       0.24347704 </v>
   <v>       0.27652662       0.25419622      -0.12457955 </v>
   <v>      -0.27652662       0.25419622      -0.12457955 </v>
   <v>       0.50000000      -0.15813928      -0.29971417 </v>
   <v>       0.50000000      -0.46770244      -0.42689310 </v>
   <v>       0.50000000       0.07799338      -0.07412065 </v>
  </varray>
 </structure>
 <varray name="primitive_index" >
  <v type="int" >        1 </v>
  <v type="int" >        9 </v>
  <v type="int" >        7 </v>
  <v type="int" >        3 </v>
  <v type="int" >        6 </v>
  <v type="int" >       15 </v>
  <v type="int" >       14 </v>
  <v type="int" >       16 </v>
  <v type="int" >       13 </v>
  <v type="int" >       11 </v>
  <v type="int" >       10 </v>
  <v type="int" >        4 </v>
  <v type="int" >        5 </v>
  <v type="int" >        8 </v>
  <v type="int" >       12 </v>
  <v type="int" >        2 </v>
 </varray>
 <kpoints>
  <generation param="Monkhorst-Pack">
   <v type="int" name="divisions">       4        4        4 </v>
   <v name="usershift">      0.00000000       0.00000000       0.00000000 </v>
   <v name="genvec1">      0.25000000       0.00000000       0.00000000 </v>
   <v name="genvec2">      0.00000000       0.25000000       0.00000000 </v>
   <v name="genvec3">      0.00000000       0.00000000       0.25000000 </v>
   <v name="shift">      0.50000000       0.50000000       0.50000000 </v>
  </generation>
  <varray name="kpointlist" >
   <v>       0.12500000       0.12500000       0.12500000 </v>
   <v>       0.37500000       0.12500000       0.12500000 </v>
   <v>       0.12500000       0.37500000       0.12500000 </v>
   <v>       0.37500000       0.37500000       0.12500000 </v>
   <v>       0.12500000       0.12500000       0.37500000 </v>
   <v>       0.37500000       0.12500000       0.37500000 </v>
   <v>       0.12500000       0.37500000       0.37500000 </v>
   <v>       0.37500000       0.37500000       0.37500000 </v>
  </varray>
  <varray name="weights" >
   <v>       0.12500000 </v>
   <v>       0.12500000 </v>
   <v>       0.12500000 </v>
   <v>       0.12500000 </v>
   <v>       0.12500000 </v>
   <v>       0.12500000 </v>
   <v>       0.12500000 </v>
   <v>       0.12500000 </v>
  </varray>
  <varray name="tetrahedronlist"  type="int" >
   <v type="int" >        2        1        2        4        5 </v>
   <v type="int" >        2        1        3        4        5 </v>
   <v type="int" >        2        3        4        5        7 </v>
   <v type="int" >        2        2        4        5        6 </v>
   <v type="int" >        2        4        5        6        8 </v>
   <v type="int" >        2        4        5        7        8 </v>
   <v type="int" >        2        2        2        4        6 </v>
   <v type="int" >        2        2        4        4        6 </v>
   <v type="int" >        2        4        4        6        8 </v>
   <v type="int" >        2        2        4        6        6 </v>
   <v type="int" >        2        4        6        6        8 </v>
   <v type="int" >        2        4        6        8        8 </v>
   <v type="int" >        2        1        2        3        6 </v>
   <v type="int" >        2        2        3        4        6 </v>
   <v type="int" >        2        3        4        6        8 </v>
   <v type="int" >        2        1        3        5        6 </v>
   <v type="int" >        2        3        5        6        7 </v>
   <v type="int" >        2        3        6        7        8 </v>
   <v type="int" >        2        1        1        3        5 </v>
   <v type="int" >        2        1        3        3        5 </v>
   <v type="int" >        2        3        3        5        7 </v>
   <v type="int" >        2        1        3        5        5 </v>
   <v type="int" >        2        3        5        5        7 </v>
   <v type="int" >        2        3        5        7        7 </v>
   <v type="int" >        2        3        4        4        7 </v>
   <v type="int" >        2        3        3        4        7 </v>
   <v type="int" >        2        3        4        7        7 </v>
   <v type="int" >        2        4        4        7        8 </v>
   <v type="int" >        2        4        7        8        8 </v>
   <v type="int" >        2        4        7        7        8 </v>
   <v type="int" >        4        4        4        4        8 </v>
   <v type="int" >        4        4        4        8        8 </v>
   <v type="int" >        4        4        8        8        8 </v>
   <v type="int" >        2        3        3        4        8 </v>
   <v type="int" >        2        3        4        4        8 </v>
   <v type="int" >        2        3        4        8        8 </v>
   <v type="int" >        2        3        3        7        8 </v>
   <v type="int" >        2        3        7        7        8 </v>
   <v type="int" >        2        3        7        8        8 </v>
   <v type="int" >        4        3        3        3        7 </v>
   <v type="int" >        4        3        3        7        7 </v>
   <v type="int" >        4        3        7        7        7 </v>
   <v type="int" >        2        2        3        4        7 </v>
   <v type="int" >        2        1        2        3        7 </v>
   <v type="int" >        2        1        2        5        7 </v>
   <v type="int" >        2        2        4        7        8 </v>
   <v type="int" >        2        2        6        7        8 </v>
   <v type="int" >        2        2        5        6        7 </v>
   <v type="int" >        2        2        4        4        8 </v>
   <v type="int" >        2        2        2        4        8 </v>
   <v type="int" >        2        2        2        6        8 </v>
   <v type="int" >        2        2        4        8        8 </v>
   <v type="int" >        2        2        6        8        8 </v>
   <v type="int" >        2        2        6        6        8 </v>
   <v type="int" >        2        1        3        4        8 </v>
   <v type="int" >        2        1        2        4        8 </v>
   <v type="int" >        2        1        2        6        8 </v>
   <v type="int" >        2        1        3        7        8 </v>
   <v type="int" >        2        1        5        7        8 </v>
   <v type="int" >        2        1        5        6        8 </v>
   <v type="int" >        2        1        3        3        7 </v>
   <v type="int" >        2        1        1        3        7 </v>
   <v type="int" >        2        1        1        5        7 </v>
   <v type="int" >        2        1        3        7        7 </v>
   <v type="int" >        2        1        5        7        7 </v>
   <v type="int" >        2        1        5        5        7 </v>
   <v type="int" >        2        1        2        2        5 </v>
   <v type="int" >        2        1        1        2        5 </v>
   <v type="int" >        2        1        2        5        5 </v>
   <v type="int" >        2        2        2        5        6 </v>
   <v type="int" >        2        2        5        6        6 </v>
   <v type="int" >        2        2        5        5        6 </v>
   <v type="int" >        4        2        2        2        6 </v>
   <v type="int" >        4        2        2        6        6 </v>
   <v type="int" >        4        2        6        6        6 </v>
   <v type="int" >        2        1        1        2        6 </v>
   <v type="int" >        2        1        2        2        6 </v>
   <v type="int" >        2        1        2        6        6 </v>
   <v type="int" >        2        1        1        5        6 </v>
   <v type="int" >        2        1        5        5        6 </v>
   <v type="int" >        2        1        5        6        6 </v>
   <v type="int" >        4        1        1        1        5 </v>
   <v type="int" >        4        1        1        5        5 </v>
   <v type="int" >        4        1        5        5        5 </v>
   <v type="int" >        2        5        5        6        8 </v>
   <v type="int" >        2        5        5        7        8 </v>
   <v type="int" >        2        5        7        7        8 </v>
   <v type="int" >        2        5        6        6        8 </v>
   <v type="int" >        2        5        6        8        8 </v>
   <v type="int" >        2        5        7        8        8 </v>
   <v type="int" >        4        6        6        6        8 </v>
   <v type="int" >        4        6        6        8        8 </v>
   <v type="int" >        4        6        8        8        8 </v>
   <v type="int" >        2        5        6        6        7 </v>
   <v type="int" >        2        6        6        7        8 </v>
   <v type="int" >        2        6        7        8        8 </v>
   <v type="int" >        2        5        5        6        7 </v>
   <v type="int" >        2        5        6        7        7 </v>
   <v type="int" >        2        6        7        7        8 </v>
   <v type="int" >        4        5        5        5        7 </v>
   <v type="int" >        4        5        5        7        7 </v>
   <v type="int" >        4        5        7        7        7 </v>
   <v type="int" >        4        7        7        8        8 </v>
   <v type="int" >        4        7        7        7        8 </v>
   <v type="int" >        4        7        8        8        8 </v>
   <v type="int" >        6        8        8        8        8 </v>
   <v type="int" >        6        7        7        7        7 </v>
   <v type="int" >        4        5        5        6        6 </v>
   <v type="int" >        4        5        5        5        6 </v>
   <v type="int" >        4        5        6        6        6 </v>
   <v type="int" >        6        6        6        6        6 </v>
   <v type="int" >        6        5        5        5        5 </v>
   <v type="int" >        2        1        1        2        4 </v>
   <v type="int" >        2        1        1        3        4 </v>
   <v type="int" >        2        1        3        3        4 </v>
   <v type="int" >        2        1        2        2        4 </v>
   <v type="int" >        2        1        2        4        4 </v>
   <v type="int" >        2        1        3        4        4 </v>
   <v type="int" >        4        2        2        2        4 </v>
   <v type="int" >        4        2        2        4        4 </v>
   <v type="int" >        4        2        4        4        4 </v>
   <v type="int" >        2        1        2        2        3 </v>
   <v type="int" >        2        2        2        3        4 </v>
   <v type="int" >        2        2        3        4        4 </v>
   <v type="int" >        2        1        1        2        3 </v>
   <v type="int" >        2        1        2        3        3 </v>
   <v type="int" >        2        2        3        3        4 </v>
   <v type="int" >        4        1        1        1        3 </v>
   <v type="int" >        4        1        1        3        3 </v>
   <v type="int" >        4        1        3        3        3 </v>
   <v type="int" >        4        3        3        4        4 </v>
   <v type="int" >        4        3        3        3        4 </v>
   <v type="int" >        4        3        4        4        4 </v>
   <v type="int" >        6        4        4        4        4 </v>
   <v type="int" >        6        3        3        3        3 </v>
   <v type="int" >        4        1        1        2        2 </v>
   <v type="int" >        4        1        1        1        2 </v>
   <v type="int" >        4        1        2        2        2 </v>
   <v type="int" >        6        2        2        2        2 </v>
   <v type="int" >        6        1        1        1        1 </v>
  </varray>
  <i name="volumeweight">      0.00260417 </i>
 </kpoints>
 <parameters>
  <separator name="general" >
   <i type="string" name="SYSTEM">unknown system</i>
   <i type="logical" name="LCOMPAT"> F  </i>
  </separator>
  <separator name="electronic" >
   <i type="string" name="PREC">accura</i>
   <i name="ENMAX">    420.00000000</i>
   <i name="ENAUG">    628.94500000</i>
   <i name="EDIFF">      0.00002000</i>
   <i type="int" name="IALGO">    68</i>
   <i type="int" name="IWAVPR">    11</i>
   <i type="int" name="NBANDS">    48</i>
   <i name="NELECT">     76.00000000</i>
   <i type="int" name="TURBO">     0</i>
   <i type="int" name="IRESTART">     0</i>
   <i type="int" name="NREBOOT">     0</i>
   <i type="int" name="NMIN">     0</i>
   <i name="EREF">      0.00000000</i>
   <separator name="electronic smearing" >
    <i type="int" name="ISMEAR">    -5</i>
    <i name="SIGMA">      0.20000000</i>
    <i name="KSPACING">      0.50000000</i>
    <i type="logical" name="KGAMMA"> T  </i>
   </separator>
   <separator name="electronic projectors" >
    <i type="logical" name="LREAL"> T  </i>
    <v name="ROPT">     -0.00025000     -0.00025000     -0.00025000</v>
    <i type="int" name="LMAXPAW">  -100</i>
    <i type="int" name="LMAXMIX">     2</i>
    <i type="logical" name="NLSPLINE"> F  </i>
   </separator>
   <separator name="electronic startup" >
    <i type="int" name="ISTART">     0</i>
    <i type="int" name="ICHARG">     2</i>
    <i type="int" name="INIWAV">     1</i>
   </separator>
   <separator name="electronic spin" >
    <i type="int" name="ISPIN">     1</i>
    <i type="logical" name="LNONCOLLINEAR"> F  </i>
    <v name="MAGMOM">      1.00000000      1.00000000      1.00000000      1.00000000      1.00000000      1.00000000      1.00000000      1.00000000      1.00000000      1.00000000      1.00000000      1.00000000      1.00000000      1.00000000      1.00000000      1.00000000</v>
    <i name="NUPDOWN">     -1.00000000</i>
    <i type="logical" name="LSORBIT"> F  </i>
    <v name="SAXIS">      0.00000000      0.00000000      1.00000000</v>
    <i type="logical" name="LSPIRAL"> F  </i>
    <v name="QSPIRAL">      0.00000000      0.00000000      0.00000000</v>
    <i type="logical" name="LZEROZ"> F  </i>
   </separator>
   <separator name="electronic exchange-correlation" >
    <i type="logical" name="LASPH"> F  </i>
    <i type="logical" name="LMETAGGA"> F  </i>
   </separator>
   <separator name="electronic convergence" >
    <i type="int" name="NELM">   100</i>
    <i type="int" name="NELMDL">    -5</i>
    <i type="int" name="NELMIN">     2</i>
    <i name="ENINI">    420.00000000</i>
    <separator name="electronic convergence detail" >
     <i type="logical" name="LDIAG"> T  </i>
     <i type="logical" name="LSUBROT"> F  </i>
     <i name="WEIMIN">      0.00100000</i>
     <i name="EBREAK">      0.00000010</i>
     <i name="DEPER">      0.30000000</i>
     <i type="int" name="NRMM">     4</i>
     <i name="TIME">      0.40000000</i>
    </separator>
   </separator>
   <separator name="electronic mixer" >
    <i name="AMIX">      0.40000000</i>
    <i name="BMIX">      1.00000000</i>
    <i name="AMIN">      0.10000000</i>
    <i name="AMIX_MAG">      1.60000000</i>
    <i name="BMIX_MAG">      1.00000000</i>
    <separator name="electronic mixer details" >
     <i type="int" name="IMIX">     4</i>
     <i type="logical" name="MIXFIRST"> F  </i>
     <i type="int" name="MAXMIX">   -45</i>
     <i name="WC">    100.00000000</i>
     <i type="int" name="INIMIX">     1</i>
     <i type="int" name="MIXPRE">     1</i>
     <i type="int" name="MREMOVE">     5</i>
    </separator>
   </separator>
   <separator name="electronic dipolcorrection" >
    <i type="logical" name="LDIPOL"> F  </i>
    <i type="logical" name="LMONO"> F  </i>
    <i type="int" name="IDIPOL">     0</i>
    <i name="EPSILON">      1.00000000</i>
    <v name="DIPOL">   -100.00000000   -100.00000000   -100.00000000</v>
    <i name="EFIELD">      0.00000000</i>
   </separator>
  </separator>
  <separator name="grids" >
   <i type="int" name="NGX">    50</i>
   <i type="int" name="NGY">    48</i>
   <i type="int" name="NGZ">    40</i>
   <i type="int" name="NGXF">   100</i>
   <i type="int" name="NGYF">    96</i>
   <i type="int" name="NGZF">    80</i>
   <i type="logical" name="ADDGRID"> F  </i>
  </separator>
  <separator name="ionic" >
   <i type="int" name="NSW">   100</i>
   <i type="int" name="IBRION">     2</i>
   <i type="int" name="MDALGO">     0</i>
   <i type="int" name="ISIF">     3</i>
   <i name="PSTRESS">      0.00000000</i>
   <i name="EDIFFG">      0.00020000</i>
   <i type="int" name="NFREE">     1</i>
   <i name="POTIM">      0.50000000</i>
   <i name="SMASS">     -3.00000000</i>
   <i name="SCALEE">      1.00000000</i>
  </separator>
  <separator name="ionic md" >
   <i name="TEBEG">      0.00010000</i>
   <i name="TEEND">      0.00010000</i>
   <i type="int" name="NBLOCK">     1</i>
   <i type="int" name="KBLOCK">   100</i>
   <i type="int" name="NPACO">   256</i>
   <i name="APACO">     16.00000000</i>
  </separator>
  <separator name="symmetry" >
   <i type="int" name="ISYM">     2</i>
   <i name="SYMPREC">      0.00001000</i>
  </separator>
  <separator name="dos" >
   <i type="int" name="LORBIT">     0</i>
   <v name="RWIGS">     -1.00000000     -1.00000000     -1.00000000</v>
   <i type="int" name="NEDOS">   301</i>
   <i name="EMIN">     10.00000000</i>
   <i name="EMAX">    -10.00000000</i>
   <i name="EFERMI">      0.00000000</i>
  </separator>
  <separator name="writing" >
   <i type="int" name="NWRITE">     2</i>
   <i type="logical" name="LWAVE"> F  </i>
   <i type="logical" name="LDOWNSAMPLE"> F  </i>
   <i type="logical" name="LCHARG"> F  </i>
   <i type="logical" name="LPARD"> F  </i>
   <i type="logical" name="LVTOT"> F  </i>
   <i type="logical" name="LVHAR"> F  </i>
   <i type="logical" name="LELF"> F  </i>
   <i type="logical" name="LOPTICS"> F  </i>
   <v name="STM">      0.00000000      0.00000000      0.00000000      0.00000000      0.00000000      0.00000000      0.00000000</v>
  </separator>
  <separator name="performance" >
   <i type="int" name="NPAR">     4</i>
   <i type="int" name="NSIM">     4</i>
   <i type="int" name="NBLK">    -1</i>
   <i type="logical" name="LPLANE"> T  </i>
   <i type="logical" name="LSCALAPACK"> T  </i>
   <i type="logical" name="LSCAAWARE"> F  </i>
   <i type="logical" name="LSCALU"> F  </i>
   <i type="logical" name="LASYNC"> F  </i>
   <i type="logical" name="LORBITALREAL"> F  </i>
  </separator>
  <separator name="miscellaneous" >
   <i type="int" name="IDIOT">     3</i>
   <i type="int" name="ISPECIAL">     0</i>
   <i type="logical" name="LMUSIC"> F  </i>
   <v name="POMASS">     30.97400000     32.06600000      7.01000000</v>
   <v name="DARWINR">      0.00000000      0.00000000      0.00000000</v>
   <v name="DARWINV">      1.00000000      1.00000000      1.00000000</v>
   <i type="logical" name="LCORR"> T  </i>
  </separator>
  <i type="logical" name="GGA_COMPAT"> T  </i>
  <i type="logical" name="LBERRY"> F  </i>
  <i type="int" name="ICORELEVEL">     0</i>
  <i type="logical" name="LDAU"> F  </i>
  <i type="int" name="I_CONSTRAINED_M">     0</i>
  <separator name="electronic exchange-correlation" >
   <i type="string" name="GGA">--</i>
   <i type="int" name="VOSKOWN">     0</i>
   <i type="logical" name="LHFCALC"> F  </i>
   <i type="string" name="PRECFOCK"></i>
   <i type="logical" name="LSYMGRAD"> F  </i>
   <i type="logical" name="LHFONE"> F  </i>
   <i type="logical" name="LRHFCALC"> F  </i>
   <i type="logical" name="LTHOMAS"> F  </i>
   <i type="logical" name="LMODELHF"> F  </i>
   <i name="ENCUT4O">     -1.00000000</i>
   <i type="int" name="EXXOEP">     0</i>
   <i type="int" name="FOURORBIT">     0</i>
   <i name="AEXX">      0.00000000</i>
   <i name="HFALPHA">      0.00000000</i>
   <i name="MCALPHA">      0.00000000</i>
   <i name="ALDAX">      1.00000000</i>
   <i name="AGGAX">      1.00000000</i>
   <i name="ALDAC">      1.00000000</i>
   <i name="AGGAC">      1.00000000</i>
   <i type="int" name="NKREDX">     1</i>
   <i type="int" name="NKREDY">     1</i>
   <i type="int" name="NKREDZ">     1</i>
   <i type="logical" name="SHIFTRED"> F  </i>
   <i type="logical" name="ODDONLY"> F  </i>
   <i type="logical" name="EVENONLY"> F  </i>
   <i type="int" name="LMAXFOCK">     0</i>
   <i type="int" name="NMAXFOCKAE">     0</i>
   <i type="logical" name="LFOCKAEDFT"> F  </i>
   <i name="HFSCREEN">      0.00000000</i>
   <i name="HFSCREENC">      0.00000000</i>
   <i type="int" name="NBANDSGWLOW">     0</i>
  </separator>
  <separator name="vdW DFT" >
   <i type="logical" name="LUSE_VDW"> F  </i>
   <i name="Zab_VDW">     -0.84910000</i>
   <i name="PARAM1">      0.12340000</i>
   <i name="PARAM2">      1.00000000</i>
   <i name="PARAM3">      0.00000000</i>
  </separator>
  <separator name="model GW" >
   <i type="int" name="MODEL_GW">     0</i>
   <i name="MODEL_EPS0">     10.76141338</i>
   <i name="MODEL_ALPHA">      1.00000000</i>
  </separator>
  <separator name="linear response parameters" >
   <i type="logical" name="LEPSILON"> F  </i>
   <i type="logical" name="LRPA"> F  </i>
   <i type="logical" name="LNABLA"> F  </i>
   <i type="logical" name="LVEL"> F  </i>
   <i type="int" name="KINTER">     0</i>
   <i name="CSHIFT">      0.10000000</i>
   <i name="OMEGAMAX">     -1.00000000</i>
   <i name="DEG_THRESHOLD">      0.00200000</i>
   <i name="RTIME">     -0.10000000</i>
   <i name="WPLASMAI">      0.00000000</i>
   <v name="DFIELD">      0.00000000      0.00000000      0.00000000</v>
   <v name="WPLASMA">      0.00000000      0.00000000      0.00000000      0.00000000      0.00000000      0.00000000      0.00000000      0.00000000      0.00000000</v>
  </separator>
  <separator name="orbital magnetization" >
   <i type="logical" name="NUCIND"> F  </i>
   <v name="MAGPOS">      0.00000000      0.00000000      0.00000000</v>
   <i type="logical" name="LNICSALL"> T  </i>
   <i type="logical" name="ORBITALMAG"> F  </i>
   <i type="logical" name="LMAGBLOCH"> F  </i>
   <i type="logical" name="LCHIMAG"> F  </i>
   <i type="logical" name="LGAUGE"> T  </i>
   <i type="int" name="MAGATOM">     0</i>
   <v name="MAGDIPOL">      0.00000000      0.00000000      0.00000000</v>
   <v name="AVECCONST">      0.00000000      0.00000000      0.00000000</v>
  </separator>
  <separator name="response functions" >
   <i type="logical" name="LADDER"> F  </i>
   <i type="logical" name="LRPAFORCE"> F  </i>
   <i type="logical" name="LFXC"> F  </i>
   <i type="logical" name="LHARTREE"> T  </i>
   <i type="int" name="IBSE">     0</i>
   <v type="int" name="KPOINT">    -1     0     0     0</v>
   <i type="logical" name="LTCTE"> F  </i>
   <i type="logical" name="LTETE"> F  </i>
   <i type="logical" name="LTRIPLET"> F  </i>
   <i type="logical" name="LFXCEPS"> F  </i>
   <i type="logical" name="LFXHEG"> F  </i>
   <i type="int" name="NATURALO">     2</i>
   <i type="logical" name="L2ORDER"> F  </i>
   <i type="logical" name="LMP2LT"> F  </i>
   <i type="logical" name="LUSEW"> F  </i>
   <i name="ENCUTGW">     -2.00000000</i>
   <i name="ENCUTGWSOFT">     -2.00000000</i>
   <i name="ENCUTLF">     -1.00000000</i>
   <i type="int" name="LMAXMP2">    -1</i>
   <i name="SCISSOR">      0.00000000</i>
   <i type="int" name="NOMEGA">     0</i>
   <i type="int" name="NOMEGAR">     0</i>
   <i type="int" name="NBANDSGW">    -1</i>
   <i type="int" name="NBANDSO">    -1</i>
   <i type="int" name="NBANDSV">    -1</i>
   <i type="int" name="NELM">   100</i>
   <i type="int" name="NELMHF">     1</i>
   <i type="int" name="DIM">     3</i>
   <i type="int" name="ANTIRES">     0</i>
   <i name="OMEGAMAX">    -30.00000000</i>
   <i name="OMEGAMIN">    -30.00000000</i>
   <i name="OMEGATL">   -200.00000000</i>
   <i type="int" name="OMEGAGRID">   140</i>
   <i name="CSHIFT">     -0.10000000</i>
   <i type="logical" name="SELFENERGY"> F  </i>
   <i type="logical" name="LSPECTRAL"> F  </i>
   <i type="logical" name="LSPECTRALGW"> F  </i>
   <i type="logical" name="LSINGLES"> F  </i>
   <i type="logical" name="LFERMIGW"> F  </i>
   <i type="logical" name="ODDONLYGW"> F  </i>
   <i type="logical" name="EVENONLYGW"> F  </i>
   <i type="int" name="NKREDLFX">     1</i>
   <i type="int" name="NKREDLFY">     1</i>
   <i type="int" name="NKREDLFZ">     1</i>
   <i type="int" name="MAXMEM">  2800</i>
   <i type="int" name="TELESCOPE">     0</i>
   <i type="int" name="TAUPAR">     1</i>
   <i type="int" name="OMEGAPAR">    -1</i>
   <i name="LAMBDA">      1.00000000</i>
  </separator>
  <separator name="External order field" >
   <i name="OFIELD_KAPPA">      0.00000000</i>
   <v name="OFIELD_K">      0.00000000      0.00000000      0.00000000</v>
   <i name="OFIELD_Q6_NEAR">      0.00000000</i>
   <i name="OFIELD_Q6_FAR">      0.00000000</i>
   <i name="OFIELD_A">      0.00000000</i>
  </separator>
 </parameters>
 <atominfo>
  <atoms>      16 </atoms>
  <types>       3 </types>
  <array name="atoms" >
   <dimension dim="1">ion</dimension>
   <field type="string">element</field>
   <field type="int">atomtype</field>
   <set>
    <rc><c>P </c><c>   1</c></rc>
    <rc><c>P </c><c>   1</c></rc>
    <rc><c>S </c><c>   2</c></rc>
    <rc><c>S </c><c>   2</c></rc>
    <rc><c>S </c><c>   2</c></rc>
    <rc><c>S </c><c>   2</c></rc>
    <rc><c>S </c><c>   2</c></rc>
    <rc><c>S </c><c>   2</c></rc>
    <rc><c>S </c><c>   2</c></rc>
    <rc><c>S </c><c>   2</c></rc>
    <rc><c>Li</c><c>   3</c></rc>
    <rc><c>Li</c><c>   3</c></rc>
    <rc><c>Li</c><c>   3</c></rc>
    <rc><c>Li</c><c>   3</c></rc>
    <rc><c>Li</c><c>   3</c></rc>
    <rc><c>Li</c><c>   3</c></rc>
   </set>
  </array>
  <array name="atomtypes" >
   <dimension dim="1">type</dimension>
   <field type="int">atomspertype</field>
   <field type="string">element</field>
   <field>mass</field>
   <field>valence</field>
   <field type="string">pseudopotential</field>
   <set>
    <rc><c>   2</c><c>P </c><c>     30.97400000</c><c>      5.00000000</c><c>  PAW P 26Mar2009                       </c></rc>
    <rc><c>   8</c><c>S </c><c>     32.06600000</c><c>      6.00000000</c><c>  PAW S 27Mar2009                       </c></rc>
    <rc><c>   6</c><c>Li</c><c>      7.01000000</c><c>      3.00000000</c><c>  PAW Li_sv 10Sep2004                   </c></rc>
   </set>
  </array>
 </atominfo>
 <structure name="initialpos" >
  <crystal>
   <varray name="basis" >
    <v>       7.44877288       0.00000000       0.00000000 </v>
    <v>       0.00000000       6.43206248       0.00000000 </v>
    <v>       0.00000000       0.00000000       5.98967227 </v>
   </varray>
   <i name="volume">    286.97102348 </i>
   <varray name="rec_basis" >
    <v>       0.13425030       0.00000000       0.00000000 </v>
    <v>       0.00000000       0.15547113       0.00000000 </v>
    <v>       0.00000000       0.00000000       0.16695404 </v>
   </varray>
  </crystal>
  <varray name="positions" >
   <v>       0.00000000       0.92200662       0.42587935 </v>
   <v>       0.50000000       0.07799338       0.92587935 </v>
   <v>       0.22347338       0.74580378       0.37542045 </v>
   <v>       0.27652662       0.25419622       0.87542045 </v>
   <v>       0.72347338       0.25419622       0.87542045 </v>
   <v>       0.77652662       0.74580378       0.37542045 </v>
   <v>       0.00000000       0.15813928       0.20028583 </v>
   <v>       0.50000000       0.84186072       0.70028583 </v>
   <v>       0.00000000       0.03227096       0.74347704 </v>
   <v>       0.50000000       0.96772904       0.24347704 </v>
   <v>       0.00000000       0.46770244       0.07310690 </v>
   <v>       0.50000000       0.53229756       0.57310690 </v>
   <v>       0.77759989       0.71044541       0.85966867 </v>
   <v>       0.72240011       0.28955459       0.35966867 </v>
   <v>       0.27759989       0.28955459       0.35966867 </v>
   <v>       0.22240011       0.71044541       0.85966867 </v>
  </varray>
 </structure>
 <calculation>
  <scstep>
   <time name="dav">    0.20    0.21</time>
   <time name="total">    0.21    0.23</time>
   <energy>
    <i name="alphaZ">     68.76289450 </i>
    <i name="ewald">  -2670.72799355 </i>
    <i name="hartreedc">   -699.53983790 </i>
    <i name="XCdc">    182.39477973 </i>
    <i name="pawpsdc">   2494.22442938 </i>
    <i name="pawaedc">  -2541.12215007 </i>
    <i name="eentropy">      0.00000000 </i>
    <i name="bandstr">   -108.75559187 </i>
    <i name="atom">   3769.08782378 </i>
    <i name="e_fr_energy">    494.32435400 </i>
    <i name="e_wo_entrp">    494.32435400 </i>
    <i name="e_0_energy">    494.32435400 </i>
   </energy>
  </scstep>
  <scstep>
   <time name="dav">    0.20    0.20</time>
   <time name="total">    0.20    0.21</time>
   <energy>
    <i name="e_fr_energy">      5.47878535 </i>
    <i name="e_wo_entrp">      5.47878535 </i>
    <i name="e_0_energy">      5.47878535 </i>
   </energy>
  </scstep>
  <scstep>
   <time name="dav">    0.22    0.23</time>
   <time name="total">    0.22    0.23</time>
   <energy>
    <i name="e_fr_energy">    -62.85606624 </i>
    <i name="e_wo_entrp">    -62.85606624 </i>
    <i name="e_0_energy">    -62.85606624 </i>
   </energy>
  </scstep>
  <scstep>
   <time name="dav">    0.26    0.26</time>
   <time name="total">    0.26    0.26</time>
   <energy>
    <i name="e_fr_energy">    -69.47057135 </i>
    <i name="e_wo_entrp">    -69.47057135 </i>
    <i name="e_0_energy">    -69.47057135 </i>
   </energy>
  </scstep>
  <scstep>
   <time name="dav">    0.24    0.25</time>
   <time name="total">    0.26    0.27</time>
   <energy>
    <i name="e_fr_energy">    -70.28917767 </i>
    <i name="e_wo_entrp">    -70.28917767 </i>
    <i name="e_0_energy">    -70.28917767 </i>
   </energy>
  </scstep>
  <scstep>
   <time name="diag">    0.05    0.05</time>
   <time name="diis">    0.08    0.08</time>
   <time name="orth">    0.01    0.01</time>
   <time name="total">    0.16    0.16</time>
   <energy>
    <i name="e_fr_energy">    -68.28459641 </i>
    <i name="e_wo_entrp">    -68.28459641 </i>
    <i name="e_0_energy">    -68.28459641 </i>
   </energy>
  </scstep>
  <scstep>
   <time name="diag">    0.05    0.05</time>
   <time name="diis">    0.09    0.09</time>
   <time name="orth">    0.01    0.01</time>
   <time name="total">    0.17    0.17</time>
   <energy>
    <i name="e_fr_energy">    -68.03784785 </i>
    <i name="e_wo_entrp">    -68.03784785 </i>
    <i name="e_0_energy">    -68.03784785 </i>
   </energy>
  </scstep>
  <scstep>
   <time name="diag">    0.05    0.05</time>
   <time name="diis">    0.09    0.09</time>
   <time name="orth">    0.01    0.01</time>
   <time name="total">    0.17    0.17</time>
   <energy>
    <i name="e_fr_energy">    -67.92642138 </i>
    <i name="e_wo_entrp">    -67.92642138 </i>
    <i name="e_0_energy">    -67.92642138 </i>
   </energy>
  </scstep>
  <scstep>
   <time name="diag">    0.05    0.05</time>
   <time name="diis">    0.11    0.11</time>
   <time name="orth">    0.01    0.01</time>
   <time name="total">    0.18    0.18</time>
   <energy>
    <i name="e_fr_energy">    -67.92614192 </i>
    <i name="e_wo_entrp">    -67.92614192 </i>
    <i name="e_0_energy">    -67.92614192 </i>
   </energy>
  </scstep>
  <scstep>
   <time name="diag">    0.05    0.05</time>
   <time name="diis">    0.11    0.11</time>
   <time name="orth">    0.01    0.01</time>
   <time name="total">    0.19    0.19</time>
   <energy>
    <i name="e_fr_energy">    -67.92811672 </i>
    <i name="e_wo_entrp">    -67.92811672 </i>
    <i name="e_0_energy">    -67.92811672 </i>
   </energy>
  </scstep>
  <scstep>
   <time name="diag">    0.05    0.05</time>
   <time name="diis">    0.11    0.11</time>
   <time name="orth">    0.01    0.01</time>
   <time name="total">    0.19    0.19</time>
   <energy>
    <i name="e_fr_energy">    -67.92918629 </i>
    <i name="e_wo_entrp">    -67.92918629 </i>
    <i name="e_0_energy">    -67.92918629 </i>
   </energy>
  </scstep>
  <scstep>
   <time name="diag">    0.05    0.05</time>
   <time name="diis">    0.10    0.10</time>
   <time name="orth">    0.01    0.01</time>
   <time name="total">    0.18    0.18</time>
   <energy>
    <i name="e_fr_energy">    -67.92976146 </i>
    <i name="e_wo_entrp">    -67.92976146 </i>
    <i name="e_0_energy">    -67.92976146 </i>
   </energy>
  </scstep>
  <scstep>
   <time name="diag">    0.05    0.05</time>
   <time name="diis">    0.10    0.10</time>
   <time name="orth">    0.01    0.01</time>
   <time name="total">    0.18    0.18</time>
   <energy>
    <i name="e_fr_energy">    -67.93017563 </i>
    <i name="e_wo_entrp">    -67.93017563 </i>
    <i name="e_0_energy">    -67.93017563 </i>
   </energy>
  </scstep>
  <scstep>
   <time name="diag">    0.05    0.05</time>
   <time name="diis">    0.09    0.09</time>
   <time name="orth">    0.01    0.01</time>
   <time name="total">    0.17    0.17</time>
   <energy>
    <i name="e_fr_energy">    -67.93043581 </i>
    <i name="e_wo_entrp">    -67.93043581 </i>
    <i name="e_0_energy">    -67.93043581 </i>
   </energy>
  </scstep>
  <scstep>
   <time name="diag">    0.05    0.05</time>
   <time name="diis">    0.10    0.10</time>
   <time name="orth">    0.01    0.01</time>
   <time name="total">    0.17    0.17</time>
   <energy>
    <i name="e_fr_energy">    -67.93057551 </i>
    <i name="e_wo_entrp">    -67.93057551 </i>
    <i name="e_0_energy">    -67.93057551 </i>
   </energy>
  </scstep>
  <scstep>
   <time name="diag">    0.05    0.05</time>
   <time name="diis">    0.09    0.09</time>
   <time name="orth">    0.01    0.01</time>
   <time name="total">    0.17    0.17</time>
   <energy>
    <i name="e_fr_energy">    -67.93069364 </i>
    <i name="e_wo_entrp">    -67.93069364 </i>
    <i name="e_0_energy">    -67.93069364 </i>
   </energy>
  </scstep>
  <scstep>
   <time name="diag">    0.05    0.05</time>
   <time name="diis">    0.08    0.08</time>
   <time name="orth">    0.01    0.01</time>
   <time name="total">    0.16    0.16</time>
   <energy>
    <i name="e_fr_energy">    -67.93074757 </i>
    <i name="e_wo_entrp">    -67.93074757 </i>
    <i name="e_0_energy">    -67.93074757 </i>
   </energy>
  </scstep>
  <scstep>
   <time name="diag">    0.05    0.05</time>
   <time name="diis">    0.08    0.08</time>
   <time name="orth">    0.01    0.01</time>
   <time name="total">    0.16    0.16</time>
   <energy>
    <i name="e_fr_energy">    -67.93078231 </i>
    <i name="e_wo_entrp">    -67.93078231 </i>
    <i name="e_0_energy">    -67.93078231 </i>
   </energy>
  </scstep>
  <scstep>
   <time name="diag">    0.05    0.05</time>
   <time name="diis">    0.07    0.07</time>
   <time name="orth">    0.01    0.01</time>
   <time name="total">    0.15    0.15</time>
   <energy>
    <i name="e_fr_energy">    -67.93079908 </i>
    <i name="e_wo_entrp">    -67.93079908 </i>
    <i name="e_0_energy">    -67.93079908 </i>
   </energy>
  </scstep>
  <scstep>
   <time name="diag">    0.05    0.05</time>
   <time name="diis">    0.07    0.07</time>
   <time name="orth">    0.01    0.01</time>
   <time name="total">    0.13    0.13</time>
   <energy>
    <i name="alphaZ">     68.76289450 </i>
    <i name="ewald">  -2670.72799355 </i>
    <i name="hartreedc">   -727.44895370 </i>
    <i name="XCdc">    185.08544607 </i>
    <i name="pawpsdc">   8036.24359876 </i>
    <i name="pawaedc">  -8086.78062154 </i>
    <i name="eentropy">      0.00000000 </i>
    <i name="bandstr">   -642.15300135 </i>
    <i name="atom">   3769.08782378 </i>
    <i name="e_fr_energy">    -67.93080704 </i>
    <i name="e_wo_entrp">    -67.93080704 </i>
    <i name="e_0_energy">    -67.93080704 </i>
   </energy>
  </scstep>
  <structure>
   <crystal>
    <varray name="basis" >
     <v>       7.44877288       0.00000000       0.00000000 </v>
     <v>       0.00000000       6.43206248       0.00000000 </v>
     <v>       0.00000000       0.00000000       5.98967227 </v>
    </varray>
    <i name="volume">    286.97102348 </i>
    <varray name="rec_basis" >
     <v>       0.13425030       0.00000000       0.00000000 </v>
     <v>       0.00000000       0.15547113       0.00000000 </v>
     <v>       0.00000000       0.00000000       0.16695404 </v>
    </varray>
   </crystal>
   <varray name="positions" >
    <v>       0.00000000       0.92200662       0.42587935 </v>
    <v>       0.50000000       0.07799338       0.92587935 </v>
    <v>       0.22347338       0.74580378       0.37542045 </v>
    <v>       0.27652662       0.25419622       0.87542045 </v>
    <v>       0.72347338       0.25419622       0.87542045 </v>
    <v>       0.77652662       0.74580378       0.37542045 </v>
    <v>       0.00000000       0.15813928       0.20028583 </v>
    <v>       0.50000000       0.84186072       0.70028583 </v>
    <v>       0.00000000       0.03227096       0.74347704 </v>
    <v>       0.50000000       0.96772904       0.24347704 </v>
    <v>       0.00000000       0.46770244       0.07310690 </v>
    <v>       0.50000000       0.53229756       0.57310690 </v>
    <v>       0.77759989       0.71044541       0.85966867 </v>
    <v>       0.72240011       0.28955459       0.35966867 </v>
    <v>       0.27759989       0.28955459       0.35966867 </v>
    <v>       0.22240011       0.71044541       0.85966867 </v>
   </varray>
  </structure>
  <varray name="forces" >
   <v>       0.00000000      -0.84380157       1.29487508 </v>
   <v>       0.00000000       0.84380157       1.29487508 </v>
   <v>      -1.16784861      -1.96315063      -0.86997391 </v>
   <v>       1.16784861       1.96315063      -0.86997391 </v>
   <v>      -1.16784861       1.96315063      -0.86997391 </v>
   <v>       1.16784861      -1.96315063      -0.86997391 </v>
   <v>       0.00000000      -1.14547305       1.58179054 </v>
   <v>       0.00000000       1.14547305       1.58179054 </v>
   <v>       0.00000000      -2.53459995      -1.22813669 </v>
   <v>       0.00000000       2.53459995      -1.22813669 </v>
   <v>       0.00000000       0.40746672       0.58458038 </v>
   <v>       0.00000000      -0.40746672       0.58458038 </v>
   <v>      -0.42066561       0.53590236      -0.24658074 </v>
   <v>       0.42066561      -0.53590236      -0.24658074 </v>
   <v>      -0.42066561      -0.53590236      -0.24658074 </v>
   <v>       0.42066561       0.53590236      -0.24658074 </v>
  </varray>
  <varray name="stress" >
   <v>     106.25423244       0.00000000       0.00000000 </v>
   <v>       0.00000000      -1.66565600       0.00000000 </v>
   <v>       0.00000000       0.00000000       1.23310969 </v>
  </varray>
  <energy>
   <i name="e_fr_energy">    -67.93080704 </i>
   <i name="e_wo_entrp">    -67.93080704 </i>
   <i name="e_0_energy">      0.00000000 </i>
  </energy>
  <time name="totalsc">    3.88    3.92</time>
 </calculation>
 <calculation>
  <scstep>
   <time name="dav">    0.17    0.17</time>
   <time name="total">    0.19    0.19</time>
   <energy>
    <i name="alphaZ">     65.04642890 </i>
    <i name="ewald">  -2636.06403337 </i>
    <i name="hartreedc">   -695.40066867 </i>
    <i name="XCdc">    181.64909167 </i>
    <i name="pawpsdc">   8036.29319599 </i>
    <i name="pawaedc">  -8086.82985130 </i>
    <i name="eentropy">      0.00000000 </i>
    <i name="bandstr">   -704.04429738 </i>
    <i name="atom">   3769.08782378 </i>
    <i name="e_fr_energy">    -70.26231038 </i>
    <i name="e_wo_entrp">    -70.26231038 </i>
    <i name="e_0_energy">    -70.26231038 </i>
   </energy>
  </scstep>
  <scstep>
   <time name="diag">    0.05    0.05</time>
   <time name="diis">    0.08    0.08</time>
   <time name="orth">    0.01    0.01</time>
   <time name="total">    0.16    0.16</time>
   <energy>
    <i name="e_fr_energy">    -70.88612399 </i>
    <i name="e_wo_entrp">    -70.88612399 </i>
    <i name="e_0_energy">    -70.88612399 </i>
   </energy>
  </scstep>
  <scstep>
   <time name="diag">    0.05    0.05</time>
   <time name="diis">    0.10    0.10</time>
   <time name="orth">    0.01    0.01</time>
   <time name="total">    0.18    0.18</time>
   <energy>
    <i name="e_fr_energy">    -70.51120537 </i>
    <i name="e_wo_entrp">    -70.51120537 </i>
    <i name="e_0_energy">    -70.51120537 </i>
   </energy>
  </scstep>
  <scstep>
   <time name="diag">    0.05    0.05</time>
   <time name="diis">    0.08    0.08</time>
   <time name="orth">    0.01    0.01</time>
   <time name="total">    0.16    0.16</time>
   <energy>
    <i name="e_fr_energy">    -70.37081522 </i>
    <i name="e_wo_entrp">    -70.37081522 </i>
    <i name="e_0_energy">    -70.37081522 </i>
   </energy>
  </scstep>
  <scstep>
   <time name="diag">    0.05    0.05</time>
   <time name="diis">    0.11    0.11</time>
   <time name="orth">    0.01    0.01</time>
   <time name="total">    0.19    0.19</time>
   <energy>
    <i name="e_fr_energy">    -70.36142772 </i>
    <i name="e_wo_entrp">    -70.36142772 </i>
    <i name="e_0_energy">    -70.36142772 </i>
   </energy>
  </scstep>
  <scstep>
   <time name="diag">    0.05    0.05</time>
   <time name="diis">    0.09    0.09</time>
   <time name="orth">    0.01    0.01</time>
   <time name="total">    0.17    0.17</time>
   <energy>
    <i name="e_fr_energy">    -70.35986969 </i>
    <i name="e_wo_entrp">    -70.35986969 </i>
    <i name="e_0_energy">    -70.35986969 </i>
   </energy>
  </scstep>
  <scstep>
   <time name="diag">    0.05    0.05</time>
   <time name="diis">    0.10    0.10</time>
   <time name="orth">    0.01    0.01</time>
   <time name="total">    0.18    0.18</time>
   <energy>
    <i name="e_fr_energy">    -70.35910895 </i>
    <i name="e_wo_entrp">    -70.35910895 </i>
    <i name="e_0_energy">    -70.35910895 </i>
   </energy>
  </scstep>
  <scstep>
   <time name="diag">    0.05    0.05</time>
   <time name="diis">    0.10    0.10</time>
   <time name="orth">    0.01    0.01</time>
   <time name="total">    0.18    0.18</time>
   <energy>
    <i name="e_fr_energy">    -70.35983316 </i>
    <i name="e_wo_entrp">    -70.35983316 </i>
    <i name="e_0_energy">    -70.35983316 </i>
   </energy>
  </scstep>
  <scstep>
   <time name="diag">    0.05    0.05</time>
   <time name="diis">    0.10    0.10</time>
   <time name="orth">    0.01    0.01</time>
   <time name="total">    0.18    0.18</time>
   <energy>
    <i name="e_fr_energy">    -70.36019806 </i>
    <i name="e_wo_entrp">    -70.36019806 </i>
    <i name="e_0_energy">    -70.36019806 </i>
   </energy>
  </scstep>
  <scstep>
   <time name="diag">    0.05    0.05</time>
   <time name="diis">    0.09    0.09</time>
   <time name="orth">    0.01    0.01</time>
   <time name="total">    0.16    0.16</time>
   <energy>
    <i name="e_fr_energy">    -70.36040200 </i>
    <i name="e_wo_entrp">    -70.36040200 </i>
    <i name="e_0_energy">    -70.36040200 </i>
   </energy>
  </scstep>
  <scstep>
   <time name="diag">    0.05    0.05</time>
   <time name="diis">    0.09    0.09</time>
   <time name="orth">    0.01    0.01</time>
   <time name="total">    0.17    0.17</time>
   <energy>
    <i name="e_fr_energy">    -70.36054860 </i>
    <i name="e_wo_entrp">    -70.36054860 </i>
    <i name="e_0_energy">    -70.36054860 </i>
   </energy>
  </scstep>
  <scstep>
   <time name="diag">    0.05    0.05</time>
   <time name="diis">    0.09    0.09</time>
   <time name="orth">    0.01    0.01</time>
   <time name="total">    0.16    0.17</time>
   <energy>
    <i name="e_fr_energy">    -70.36061879 </i>
    <i name="e_wo_entrp">    -70.36061879 </i>
    <i name="e_0_energy">    -70.36061879 </i>
   </energy>
  </scstep>
  <scstep>
   <time name="diag">    0.06    0.06</time>
   <time name="diis">    0.08    0.08</time>
   <time name="orth">    0.01    0.01</time>
   <time name="total">    0.17    0.17</time>
   <energy>
    <i name="e_fr_energy">    -70.36066529 </i>
    <i name="e_wo_entrp">    -70.36066529 </i>
    <i name="e_0_energy">    -70.36066529 </i>
   </energy>
  </scstep>
  <scstep>
   <time name="diag">    0.05    0.05</time>
   <time name="diis">    0.07    0.07</time>
   <time name="orth">    0.01    0.01</time>
   <time name="total">    0.15    0.15</time>
   <energy>
    <i name="e_fr_energy">    -70.36068608 </i>
    <i name="e_wo_entrp">    -70.36068608 </i>
    <i name="e_0_energy">    -70.36068608 </i>
   </energy>
  </scstep>
  <scstep>
   <time name="diag">    0.05    0.05</time>
   <time name="diis">    0.06    0.06</time>
   <time name="orth">    0.01    0.01</time>
   <time name="total">    0.12    0.12</time>
   <energy>
    <i name="alphaZ">     65.04642890 </i>
    <i name="ewald">  -2636.06403337 </i>
    <i name="hartreedc">   -725.53442056 </i>
    <i name="XCdc">    184.03217632 </i>
    <i name="pawpsdc">   7698.83548858 </i>
    <i name="pawaedc">  -7749.89379645 </i>
    <i name="eentropy">      0.00000000 </i>
    <i name="bandstr">   -675.87036285 </i>
    <i name="atom">   3769.08782378 </i>
    <i name="e_fr_energy">    -70.36069566 </i>
    <i name="e_wo_entrp">    -70.36069566 </i>
    <i name="e_0_energy">    -70.36069566 </i>
   </energy>
  </scstep>
  <structure>
   <crystal>
    <varray name="basis" >
     <v>       7.87620745       0.00000000       0.00000000 </v>
     <v>       0.00000000       6.42627654       0.00000000 </v>
     <v>       0.00000000       0.00000000       5.99366108 </v>
    </varray>
    <i name="volume">    303.36728006 </i>
    <varray name="rec_basis" >
     <v>       0.12696466       0.00000000       0.00000000 </v>
     <v>       0.00000000       0.15561111       0.00000000 </v>
     <v>       0.00000000       0.00000000       0.16684293 </v>
    </varray>
   </crystal>
   <varray name="positions" >
    <v>       0.00000000       0.91567782       0.43630867 </v>
    <v>       0.50000000       0.08432218       0.93630867 </v>
    <v>       0.21590970       0.73107948       0.36841342 </v>
    <v>       0.28409030       0.26892052       0.86841342 </v>
    <v>       0.71590970       0.26892052       0.86841342 </v>
    <v>       0.78409030       0.73107948       0.36841342 </v>
    <v>       0.00000000       0.14954784       0.21302605 </v>
    <v>       0.50000000       0.85045216       0.71302605 </v>
    <v>       0.00000000       0.01326059       0.73358525 </v>
    <v>       0.50000000       0.98673941       0.23358525 </v>
    <v>       0.00000000       0.47075858       0.07781529 </v>
    <v>       0.50000000       0.52924142       0.57781529 </v>
    <v>       0.77487541       0.71446486       0.85768263 </v>
    <v>       0.72512459       0.28553514       0.35768263 </v>
    <v>       0.27487541       0.28553514       0.35768263 </v>
    <v>       0.22512459       0.71446486       0.85768263 </v>
   </varray>
  </structure>
  <varray name="forces" >
   <v>       0.00000000      -2.43307308      -1.78401386 </v>
   <v>       0.00000000       2.43307308      -1.78401386 </v>
   <v>      -1.05177155      -0.98077510      -0.69183224 </v>
   <v>       1.05177155       0.98077510      -0.69183224 </v>
   <v>      -1.05177155       0.98077510      -0.69183224 </v>
   <v>       1.05177155      -0.98077510      -0.69183224 </v>
   <v>       0.00000000      -0.48591035       0.71181293 </v>
   <v>       0.00000000       0.48591035       0.71181293 </v>
   <v>       0.00000000      -0.73315843       2.16473229 </v>
   <v>       0.00000000       0.73315843       2.16473229 </v>
   <v>       0.00000000       0.16680827       0.70425340 </v>
   <v>       0.00000000      -0.16680827       0.70425340 </v>
   <v>      -0.45961552       0.43177630      -0.20656014 </v>
   <v>       0.45961552      -0.43177630      -0.20656014 </v>
   <v>      -0.45961552      -0.43177630      -0.20656014 </v>
   <v>       0.45961552       0.43177630      -0.20656014 </v>
  </varray>
  <varray name="stress" >
   <v>      13.40843714       0.00000000       0.00000000 </v>
   <v>       0.00000000     -23.60298995       0.00000000 </v>
   <v>       0.00000000       0.00000000      25.04571612 </v>
  </varray>
  <energy>
   <i name="e_fr_energy">    -70.36069566 </i>
   <i name="e_wo_entrp">    -70.36069566 </i>
   <i name="e_0_energy">      0.00000000 </i>
  </energy>
  <time name="totalsc">    2.71    2.72</time>
 </calculation>
 <calculation>
  <scstep>
   <time name="dav">    0.19    0.19</time>
   <time name="total">    0.21    0.21</time>
   <energy>
    <i name="alphaZ">     63.71609307 </i>
    <i name="ewald">  -2616.22141086 </i>
    <i name="hartreedc">   -718.53416353 </i>
    <i name="XCdc">    182.83483064 </i>
    <i name="pawpsdc">   7698.82864476 </i>
    <i name="pawaedc">  -7749.88687820 </i>
    <i name="eentropy">      0.00000000 </i>
    <i name="bandstr">   -700.40484507 </i>
    <i name="atom">   3769.08782378 </i>
    <i name="e_fr_energy">    -70.57990539 </i>
    <i name="e_wo_entrp">    -70.57990539 </i>
    <i name="e_0_energy">    -70.57990539 </i>
   </energy>
  </scstep>
  <scstep>
   <time name="diag">    0.05    0.05</time>
   <time name="diis">    0.08    0.08</time>
   <time name="orth">    0.01    0.01</time>
   <time name="total">    0.16    0.16</time>
   <energy>
    <i name="e_fr_energy">    -70.64351363 </i>
    <i name="e_wo_entrp">    -70.64351363 </i>
    <i name="e_0_energy">    -70.64351363 </i>
   </energy>
  </scstep>
  <scstep>
   <time name="diag">    0.05    0.05</time>
   <time name="diis">    0.10    0.10</time>
   <time name="orth">    0.01    0.01</time>
   <time name="total">    0.18    0.18</time>
   <energy>
    <i name="e_fr_energy">    -70.58549116 </i>
    <i name="e_wo_entrp">    -70.58549116 </i>
    <i name="e_0_energy">    -70.58549116 </i>
   </energy>
  </scstep>
  <scstep>
   <time name="diag">    0.05    0.05</time>
   <time name="diis">    0.09    0.09</time>
   <time name="orth">    0.01    0.01</time>
   <time name="total">    0.16    0.16</time>
   <energy>
    <i name="e_fr_energy">    -70.56821112 </i>
    <i name="e_wo_entrp">    -70.56821112 </i>
    <i name="e_0_energy">    -70.56821112 </i>
   </energy>
  </scstep>
  <scstep>
   <time name="diag">    0.05    0.05</time>
   <time name="diis">    0.11    0.11</time>
   <time name="orth">    0.01    0.01</time>
   <time name="total">    0.18    0.18</time>
   <energy>
    <i name="e_fr_energy">    -70.56727035 </i>
    <i name="e_wo_entrp">    -70.56727035 </i>
    <i name="e_0_energy">    -70.56727035 </i>
   </energy>
  </scstep>
  <scstep>
   <time name="diag">    0.05    0.05</time>
   <time name="diis">    0.09    0.09</time>
   <time name="orth">    0.01    0.01</time>
   <time name="total">    0.17    0.17</time>
   <energy>
    <i name="e_fr_energy">    -70.56748286 </i>
    <i name="e_wo_entrp">    -70.56748286 </i>
    <i name="e_0_energy">    -70.56748286 </i>
   </energy>
  </scstep>
  <scstep>
   <time name="diag">    0.05    0.05</time>
   <time name="diis">    0.09    0.09</time>
   <time name="orth">    0.01    0.01</time>
   <time name="total">    0.17    0.17</time>
   <energy>
    <i name="e_fr_energy">    -70.56747664 </i>
    <i name="e_wo_entrp">    -70.56747664 </i>
    <i name="e_0_energy">    -70.56747664 </i>
   </energy>
  </scstep>
  <scstep>
   <time name="diag">    0.05    0.05</time>
   <time name="diis">    0.09    0.09</time>
   <time name="orth">    0.01    0.01</time>
   <time name="total">    0.16    0.16</time>
   <energy>
    <i name="e_fr_energy">    -70.56758128 </i>
    <i name="e_wo_entrp">    -70.56758128 </i>
    <i name="e_0_energy">    -70.56758128 </i>
   </energy>
  </scstep>
  <scstep>
   <time name="diag">    0.05    0.05</time>
   <time name="diis">    0.09    0.09</time>
   <time name="orth">    0.01    0.01</time>
   <time name="total">    0.17    0.17</time>
   <energy>
    <i name="e_fr_energy">    -70.56764611 </i>
    <i name="e_wo_entrp">    -70.56764611 </i>
    <i name="e_0_energy">    -70.56764611 </i>
   </energy>
  </scstep>
  <scstep>
   <time name="diag">    0.05    0.05</time>
   <time name="diis">    0.07    0.07</time>
   <time name="orth">    0.01    0.01</time>
   <time name="total">    0.15    0.15</time>
   <energy>
    <i name="e_fr_energy">    -70.56767047 </i>
    <i name="e_wo_entrp">    -70.56767047 </i>
    <i name="e_0_energy">    -70.56767047 </i>
   </energy>
  </scstep>
  <scstep>
   <time name="diag">    0.05    0.05</time>
   <time name="diis">    0.07    0.07</time>
   <time name="orth">    0.01    0.01</time>
   <time name="total">    0.13    0.13</time>
   <energy>
    <i name="alphaZ">     63.71609307 </i>
    <i name="ewald">  -2616.22141086 </i>
    <i name="hartreedc">   -730.62680180 </i>
    <i name="XCdc">    183.76793114 </i>
    <i name="pawpsdc">   7731.10983344 </i>
    <i name="pawaedc">  -7782.37936613 </i>
    <i name="eentropy">      0.00000000 </i>
    <i name="bandstr">   -689.02178264 </i>
    <i name="atom">   3769.08782378 </i>
    <i name="e_fr_energy">    -70.56767999 </i>
    <i name="e_wo_entrp">    -70.56767999 </i>
    <i name="e_0_energy">    -70.56767999 </i>
   </energy>
  </scstep>
  <structure>
   <crystal>
    <varray name="basis" >
     <v>       8.04138624       0.00000000       0.00000000 </v>
     <v>       0.00000000       6.42404060       0.00000000 </v>
     <v>       0.00000000       0.00000000       5.99520252 </v>
    </varray>
    <i name="volume">    309.70132128 </i>
    <varray name="rec_basis" >
     <v>       0.12435667       0.00000000       0.00000000 </v>
     <v>       0.00000000       0.15566527       0.00000000 </v>
     <v>       0.00000000       0.00000000       0.16680004 </v>
    </varray>
   </crystal>
   <varray name="positions" >
    <v>       0.00000000       0.91322991       0.44033632 </v>
    <v>       0.50000000       0.08677009       0.94033632 </v>
    <v>       0.21314540       0.72538427       0.36570740 </v>
    <v>       0.28685460       0.27461573       0.86570740 </v>
    <v>       0.71314540       0.27461573       0.86570740 </v>
    <v>       0.78685460       0.72538427       0.36570740 </v>
    <v>       0.00000000       0.14622475       0.21794614 </v>
    <v>       0.50000000       0.85377525       0.71794614 </v>
    <v>       0.00000000       0.00590757       0.72976519 </v>
    <v>       0.50000000       0.99409243       0.22976519 </v>
    <v>       0.00000000       0.47194067       0.07963360 </v>
    <v>       0.50000000       0.52805933       0.57963360 </v>
    <v>       0.77387969       0.71601954       0.85691566 </v>
    <v>       0.72612031       0.28398046       0.35691566 </v>
    <v>       0.27387969       0.28398046       0.35691566 </v>
    <v>       0.22612031       0.71601954       0.85691566 </v>
   </varray>
  </structure>
  <varray name="forces" >
   <v>       0.00000000      -3.19057544      -3.64874332 </v>
   <v>       0.00000000       3.19057544      -3.64874332 </v>
   <v>      -1.03930167      -0.68003261      -0.60791523 </v>
   <v>       1.03930167       0.68003261      -0.60791523 </v>
   <v>      -1.03930167       0.68003261      -0.60791523 </v>
   <v>       1.03930167      -0.68003261      -0.60791523 </v>
   <v>       0.00000000      -0.24526100       0.41127153 </v>
   <v>       0.00000000       0.24526100       0.41127153 </v>
   <v>       0.00000000       0.10062598       4.09006376 </v>
   <v>       0.00000000      -0.10062598       4.09006376 </v>
   <v>       0.00000000       0.10653290       0.73260689 </v>
   <v>       0.00000000      -0.10653290       0.73260689 </v>
   <v>      -0.47283419       0.37861651      -0.18468420 </v>
   <v>       0.47283419      -0.37861651      -0.18468420 </v>
   <v>      -0.47283419      -0.37861651      -0.18468420 </v>
   <v>       0.47283419       0.37861651      -0.18468420 </v>
  </varray>
  <varray name="stress" >
   <v>     -12.91029702       0.00000000       0.00000000 </v>
   <v>       0.00000000     -27.23188758       0.00000000 </v>
   <v>       0.00000000       0.00000000      47.17702141 </v>
  </varray>
  <energy>
   <i name="e_fr_energy">    -70.56767999 </i>
   <i name="e_wo_entrp">    -70.56767999 </i>
   <i name="e_0_energy">      0.00000000 </i>
  </energy>
  <time name="totalsc">    2.02    2.04</time>
 </calculation>
 <calculation>
  <scstep>
   <time name="dav">    0.17    0.17</time>
   <time name="total">    0.19    0.20</time>
   <energy>
    <i name="alphaZ">     61.92738540 </i>
    <i name="ewald">  -2601.76190614 </i>
    <i name="hartreedc">   -714.44974208 </i>
    <i name="XCdc">    181.88380634 </i>
    <i name="pawpsdc">   7731.10484952 </i>
    <i name="pawaedc">  -7782.37445028 </i>
    <i name="eentropy">      0.00000000 </i>
    <i name="bandstr">   -717.06645153 </i>
    <i name="atom">   3769.08782378 </i>
    <i name="e_fr_energy">    -71.64868498 </i>
    <i name="e_wo_entrp">    -71.64868498 </i>
    <i name="e_0_energy">    -71.64868498 </i>
   </energy>
  </scstep>
  <scstep>
   <time name="diag">    0.05    0.05</time>
   <time name="diis">    0.08    0.08</time>
   <time name="orth">    0.01    0.01</time>
   <time name="total">    0.16    0.16</time>
   <energy>
    <i name="e_fr_energy">    -72.00191201 </i>
    <i name="e_wo_entrp">    -72.00191201 </i>
    <i name="e_0_energy">    -72.00191201 </i>
   </energy>
  </scstep>
  <scstep>
   <time name="diag">    0.05    0.05</time>
   <time name="diis">    0.11    0.11</time>
   <time name="orth">    0.01    0.01</time>
   <time name="total">    0.18    0.18</time>
   <energy>
    <i name="e_fr_energy">    -71.94210211 </i>
    <i name="e_wo_entrp">    -71.94210211 </i>
    <i name="e_0_energy">    -71.94210211 </i>
   </energy>
  </scstep>
  <scstep>
   <time name="diag">    0.05    0.05</time>
   <time name="diis">    0.09    0.09</time>
   <time name="orth">    0.01    0.01</time>
   <time name="total">    0.17    0.17</time>
   <energy>
    <i name="e_fr_energy">    -71.90436154 </i>
    <i name="e_wo_entrp">    -71.90436154 </i>
    <i name="e_0_energy">    -71.90436154 </i>
   </energy>
  </scstep>
  <scstep>
   <time name="diag">    0.05    0.05</time>
   <time name="diis">    0.09    0.09</time>
   <time name="orth">    0.01    0.01</time>
   <time name="total">    0.17    0.17</time>
   <energy>
    <i name="e_fr_energy">    -71.90331655 </i>
    <i name="e_wo_entrp">    -71.90331655 </i>
    <i name="e_0_energy">    -71.90331655 </i>
   </energy>
  </scstep>
  <scstep>
   <time name="diag">    0.05    0.05</time>
   <time name="diis">    0.10    0.10</time>
   <time name="orth">    0.01    0.01</time>
   <time name="total">    0.17    0.17</time>
   <energy>
    <i name="e_fr_energy">    -71.90201736 </i>
    <i name="e_wo_entrp">    -71.90201736 </i>
    <i name="e_0_energy">    -71.90201736 </i>
   </energy>
  </scstep>
  <scstep>
   <time name="diag">    0.05    0.05</time>
   <time name="diis">    0.11    0.11</time>
   <time name="orth">    0.01    0.01</time>
   <time name="total">    0.18    0.18</time>
   <energy>
    <i name="e_fr_energy">    -71.90253592 </i>
    <i name="e_wo_entrp">    -71.90253592 </i>
    <i name="e_0_energy">    -71.90253592 </i>
   </energy>
  </scstep>
  <scstep>
   <time name="diag">    0.05    0.05</time>
   <time name="diis">    0.10    0.10</time>
   <time name="orth">    0.01    0.01</time>
   <time name="total">    0.17    0.17</time>
   <energy>
    <i name="e_fr_energy">    -71.90296694 </i>
    <i name="e_wo_entrp">    -71.90296694 </i>
    <i name="e_0_energy">    -71.90296694 </i>
   </energy>
  </scstep>
  <scstep>
   <time name="diag">    0.05    0.05</time>
   <time name="diis">    0.09    0.09</time>
   <time name="orth">    0.01    0.01</time>
   <time name="total">    0.17    0.17</time>
   <energy>
    <i name="e_fr_energy">    -71.90318101 </i>
    <i name="e_wo_entrp">    -71.90318101 </i>
    <i name="e_0_energy">    -71.90318101 </i>
   </energy>
  </scstep>
  <scstep>
   <time name="diag">    0.05    0.05</time>
   <time name="diis">    0.10    0.10</time>
   <time name="orth">    0.01    0.01</time>
   <time name="total">    0.17    0.17</time>
   <energy>
    <i name="e_fr_energy">    -71.90330103 </i>
    <i name="e_wo_entrp">    -71.90330103 </i>
    <i name="e_0_energy">    -71.90330103 </i>
   </energy>
  </scstep>
  <scstep>
   <time name="diag">    0.05    0.05</time>
   <time name="diis">    0.09    0.09</time>
   <time name="orth">    0.01    0.01</time>
   <time name="total">    0.16    0.16</time>
   <energy>
    <i name="e_fr_energy">    -71.90336929 </i>
    <i name="e_wo_entrp">    -71.90336929 </i>
    <i name="e_0_energy">    -71.90336929 </i>
   </energy>
  </scstep>
  <scstep>
   <time name="diag">    0.05    0.05</time>
   <time name="diis">    0.08    0.08</time>
   <time name="orth">    0.01    0.01</time>
   <time name="total">    0.16    0.16</time>
   <energy>
    <i name="e_fr_energy">    -71.90340590 </i>
    <i name="e_wo_entrp">    -71.90340590 </i>
    <i name="e_0_energy">    -71.90340590 </i>
   </energy>
  </scstep>
  <scstep>
   <time name="diag">    0.05    0.05</time>
   <time name="diis">    0.07    0.07</time>
   <time name="orth">    0.01    0.01</time>
   <time name="total">    0.13    0.13</time>
   <energy>
    <i name="alphaZ">     61.92738540 </i>
    <i name="ewald">  -2601.76190614 </i>
    <i name="hartreedc">   -728.75934205 </i>
    <i name="XCdc">    182.98076487 </i>
    <i name="pawpsdc">   7251.66021770 </i>
    <i name="pawaedc">  -7302.87205806 </i>
    <i name="eentropy">      0.00000000 </i>
    <i name="bandstr">   -704.16629806 </i>
    <i name="atom">   3769.08782378 </i>
    <i name="e_fr_energy">    -71.90341254 </i>
    <i name="e_wo_entrp">    -71.90341254 </i>
    <i name="e_0_energy">    -71.90341254 </i>
   </energy>
  </scstep>
  <structure>
   <crystal>
    <varray name="basis" >
     <v>       8.23912718       0.00000000       0.00000000 </v>
     <v>       0.00000000       6.38294762       0.00000000 </v>
     <v>       0.00000000       0.00000000       6.05908388 </v>
    </varray>
    <i name="volume">    318.64671962 </i>
    <varray name="rec_basis" >
     <v>       0.12137208       0.00000000       0.00000000 </v>
     <v>       0.00000000       0.15666743       0.00000000 </v>
     <v>       0.00000000       0.00000000       0.16504145 </v>
    </varray>
   </crystal>
   <varray name="positions" >
    <v>       0.00000000       0.90119422       0.43427690 </v>
    <v>       0.50000000       0.09880578       0.93427690 </v>
    <v>       0.20745354       0.71641990       0.36052327 </v>
    <v>       0.29254646       0.28358010       0.86052327 </v>
    <v>       0.70745354       0.28358010       0.86052327 </v>
    <v>       0.79254646       0.71641990       0.36052327 </v>
    <v>       0.00000000       0.14142197       0.22527233 </v>
    <v>       0.50000000       0.85857803       0.72527233 </v>
    <v>       0.00000000      -0.00290334       0.73741631 </v>
    <v>       0.50000000       0.00290334       0.23741631 </v>
    <v>       0.00000000       0.47370356       0.08409761 </v>
    <v>       0.50000000       0.52629644       0.58409761 </v>
    <v>       0.77160736       0.71901148       0.85540884 </v>
    <v>       0.72839264       0.28098852       0.35540884 </v>
    <v>       0.27160736       0.28098852       0.35540884 </v>
    <v>       0.22839264       0.71901148       0.85540884 </v>
   </varray>
  </structure>
  <varray name="forces" >
   <v>       0.00000000      -2.29028977      -0.82908549 </v>
   <v>       0.00000000       2.29028977      -0.82908549 </v>
   <v>      -0.82393419      -0.46509184      -0.49940664 </v>
   <v>       0.82393419       0.46509184      -0.49940664 </v>
   <v>      -0.82393419       0.46509184      -0.49940664 </v>
   <v>       0.82393419      -0.46509184      -0.49940664 </v>
   <v>       0.00000000       0.13507091      -0.00713646 </v>
   <v>       0.00000000      -0.13507091      -0.00713646 </v>
   <v>       0.00000000      -0.83177081       1.44318875 </v>
   <v>       0.00000000       0.83177081       1.44318875 </v>
   <v>       0.00000000       0.11484740       0.69811453 </v>
   <v>       0.00000000      -0.11484740       0.69811453 </v>
   <v>      -0.39264919       0.38424672      -0.15313403 </v>
   <v>       0.39264919      -0.38424672      -0.15313403 </v>
   <v>      -0.39264919      -0.38424672      -0.15313403 </v>
   <v>       0.39264919       0.38424672      -0.15313403 </v>
  </varray>
  <varray name="stress" >
   <v>     -29.79823215       0.00000000       0.00000000 </v>
   <v>       0.00000000     -35.36378133       0.00000000 </v>
   <v>       0.00000000       0.00000000      -9.01640772 </v>
  </varray>
  <energy>
   <i name="e_fr_energy">    -71.90341254 </i>
   <i name="e_wo_entrp">    -71.90341254 </i>
   <i name="e_0_energy">      0.00000000 </i>
  </energy>
  <time name="totalsc">    2.39    2.41</time>
 </calculation>
 <calculation>
  <scstep>
   <time name="dav">    0.17    0.17</time>
   <time name="total">    0.19    0.20</time>
   <energy>
    <i name="alphaZ">     58.55885380 </i>
    <i name="ewald">  -2549.49431476 </i>
    <i name="hartreedc">   -715.49205219 </i>
    <i name="XCdc">    179.51093530 </i>
    <i name="pawpsdc">   7251.34909781 </i>
    <i name="pawaedc">  -7302.56194169 </i>
    <i name="eentropy">      0.00000000 </i>
    <i name="bandstr">   -762.29850649 </i>
    <i name="atom">   3769.08782378 </i>
    <i name="e_fr_energy">    -71.34010445 </i>
    <i name="e_wo_entrp">    -71.34010445 </i>
    <i name="e_0_energy">    -71.34010445 </i>
   </energy>
  </scstep>
  <scstep>
   <time name="diag">    0.05    0.05</time>
   <time name="diis">    0.09    0.09</time>
   <time name="orth">    0.01    0.01</time>
   <time name="total">    0.16    0.16</time>
   <energy>
    <i name="e_fr_energy">    -73.12207467 </i>
    <i name="e_wo_entrp">    -73.12207467 </i>
    <i name="e_0_energy">    -73.12207467 </i>
   </energy>
  </scstep>
  <scstep>
   <time name="diag">    0.05    0.05</time>
   <time name="diis">    0.11    0.11</time>
   <time name="orth">    0.01    0.01</time>
   <time name="total">    0.18    0.18</time>
   <energy>
    <i name="e_fr_energy">    -72.85545389 </i>
    <i name="e_wo_entrp">    -72.85545389 </i>
    <i name="e_0_energy">    -72.85545389 </i>
   </energy>
  </scstep>
  <scstep>
   <time name="diag">    0.05    0.05</time>
   <time name="diis">    0.09    0.09</time>
   <time name="orth">    0.01    0.01</time>
   <time name="total">    0.17    0.17</time>
   <energy>
    <i name="e_fr_energy">    -72.69525254 </i>
    <i name="e_wo_entrp">    -72.69525254 </i>
    <i name="e_0_energy">    -72.69525254 </i>
   </energy>
  </scstep>
  <scstep>
   <time name="diag">    0.05    0.05</time>
   <time name="diis">    0.10    0.10</time>
   <time name="orth">    0.01    0.01</time>
   <time name="total">    0.17    0.17</time>
   <energy>
    <i name="e_fr_energy">    -72.69531697 </i>
    <i name="e_wo_entrp">    -72.69531697 </i>
    <i name="e_0_energy">    -72.69531697 </i>
   </energy>
  </scstep>
  <scstep>
   <time name="diag">    0.05    0.05</time>
   <time name="diis">    0.10    0.10</time>
   <time name="orth">    0.01    0.01</time>
   <time name="total">    0.17    0.17</time>
   <energy>
    <i name="e_fr_energy">    -72.68944747 </i>
    <i name="e_wo_entrp">    -72.68944747 </i>
    <i name="e_0_energy">    -72.68944747 </i>
   </energy>
  </scstep>
  <scstep>
   <time name="diag">    0.05    0.05</time>
   <time name="diis">    0.11    0.11</time>
   <time name="orth">    0.01    0.01</time>
   <time name="total">    0.19    0.19</time>
   <energy>
    <i name="e_fr_energy">    -72.69135446 </i>
    <i name="e_wo_entrp">    -72.69135446 </i>
    <i name="e_0_energy">    -72.69135446 </i>
   </energy>
  </scstep>
  <scstep>
   <time name="diag">    0.05    0.05</time>
   <time name="diis">    0.11    0.11</time>
   <time name="orth">    0.01    0.01</time>
   <time name="total">    0.18    0.18</time>
   <energy>
    <i name="e_fr_energy">    -72.69278604 </i>
    <i name="e_wo_entrp">    -72.69278604 </i>
    <i name="e_0_energy">    -72.69278604 </i>
   </energy>
  </scstep>
  <scstep>
   <time name="diag">    0.05    0.05</time>
   <time name="diis">    0.10    0.10</time>
   <time name="orth">    0.01    0.01</time>
   <time name="total">    0.18    0.18</time>
   <energy>
    <i name="e_fr_energy">    -72.69348664 </i>
    <i name="e_wo_entrp">    -72.69348664 </i>
    <i name="e_0_energy">    -72.69348664 </i>
   </energy>
  </scstep>
  <scstep>
   <time name="diag">    0.05    0.05</time>
   <time name="diis">    0.10    0.10</time>
   <time name="orth">    0.01    0.01</time>
   <time name="total">    0.18    0.18</time>
   <energy>
    <i name="e_fr_energy">    -72.69382596 </i>
    <i name="e_wo_entrp">    -72.69382596 </i>
    <i name="e_0_energy">    -72.69382596 </i>
   </energy>
  </scstep>
  <scstep>
   <time name="diag">    0.05    0.05</time>
   <time name="diis">    0.10    0.10</time>
   <time name="orth">    0.01    0.01</time>
   <time name="total">    0.18    0.18</time>
   <energy>
    <i name="e_fr_energy">    -72.69401394 </i>
    <i name="e_wo_entrp">    -72.69401394 </i>
    <i name="e_0_energy">    -72.69401394 </i>
   </energy>
  </scstep>
  <scstep>
   <time name="diag">    0.05    0.05</time>
   <time name="diis">    0.09    0.09</time>
   <time name="orth">    0.01    0.01</time>
   <time name="total">    0.17    0.17</time>
   <energy>
    <i name="e_fr_energy">    -72.69411361 </i>
    <i name="e_wo_entrp">    -72.69411361 </i>
    <i name="e_0_energy">    -72.69411361 </i>
   </energy>
  </scstep>
  <scstep>
   <time name="diag">    0.05    0.05</time>
   <time name="diis">    0.08    0.08</time>
   <time name="orth">    0.01    0.01</time>
   <time name="total">    0.16    0.16</time>
   <energy>
    <i name="e_fr_energy">    -72.69416496 </i>
    <i name="e_wo_entrp">    -72.69416496 </i>
    <i name="e_0_energy">    -72.69416496 </i>
   </energy>
  </scstep>
  <scstep>
   <time name="diag">    0.05    0.05</time>
   <time name="diis">    0.08    0.08</time>
   <time name="orth">    0.01    0.01</time>
   <time name="total">    0.15    0.16</time>
   <energy>
    <i name="e_fr_energy">    -72.69419333 </i>
    <i name="e_wo_entrp">    -72.69419333 </i>
    <i name="e_0_energy">    -72.69419333 </i>
   </energy>
  </scstep>
  <scstep>
   <time name="diag">    0.05    0.05</time>
   <time name="diis">    0.07    0.07</time>
   <time name="orth">    0.01    0.01</time>
   <time name="total">    0.13    0.13</time>
   <energy>
    <i name="alphaZ">     58.55885380 </i>
    <i name="ewald">  -2549.49431476 </i>
    <i name="hartreedc">   -746.78239957 </i>
    <i name="XCdc">    181.85411204 </i>
    <i name="pawpsdc">   6756.31360113 </i>
    <i name="pawaedc">  -6807.48048238 </i>
    <i name="eentropy">      0.00000000 </i>
    <i name="bandstr">   -734.75139845 </i>
    <i name="atom">   3769.08782378 </i>
    <i name="e_fr_energy">    -72.69420442 </i>
    <i name="e_wo_entrp">    -72.69420442 </i>
    <i name="e_0_energy">    -72.69420442 </i>
   </energy>
  </scstep>
  <structure>
   <crystal>
    <varray name="basis" >
     <v>       8.64304576       0.00000000       0.00000000 </v>
     <v>       0.00000000       6.29900841       0.00000000 </v>
     <v>       0.00000000       0.00000000       6.18957212 </v>
    </varray>
    <i name="volume">    336.97651048 </i>
    <varray name="rec_basis" >
     <v>       0.11569995       0.00000000       0.00000000 </v>
     <v>       0.00000000       0.15875515       0.00000000 </v>
     <v>       0.00000000       0.00000000       0.16156206 </v>
    </varray>
   </crystal>
   <varray name="positions" >
    <v>       0.00000000       0.87645105       0.42203002 </v>
    <v>       0.50000000       0.12354895       0.92203002 </v>
    <v>       0.19610603       0.69799082       0.35004546 </v>
    <v>       0.30389397       0.30200918       0.85004546 </v>
    <v>       0.69610603       0.30200918       0.85004546 </v>
    <v>       0.80389397       0.69799082       0.35004546 </v>
    <v>       0.00000000       0.13154833       0.24007951 </v>
    <v>       0.50000000       0.86845167       0.74007951 </v>
    <v>       0.00000000      -0.02101695       0.75288021 </v>
    <v>       0.50000000       0.02101695       0.25288021 </v>
    <v>       0.00000000       0.47732776       0.09311996 </v>
    <v>       0.50000000       0.52267224       0.59311996 </v>
    <v>       0.76707714       0.72516235       0.85236337 </v>
    <v>       0.73292286       0.27483765       0.35236337 </v>
    <v>       0.26707714       0.27483765       0.35236337 </v>
    <v>       0.23292286       0.72516235       0.85236337 </v>
   </varray>
  </structure>
  <varray name="forces" >
   <v>      -0.00000000      -1.32442409       2.00092118 </v>
   <v>      -0.00000000       1.32442409       2.00092118 </v>
   <v>      -0.37809613      -0.23325915      -0.36166561 </v>
   <v>       0.37809613       0.23325915      -0.36166561 </v>
   <v>      -0.37809613       0.23325915      -0.36166561 </v>
   <v>       0.37809613      -0.23325915      -0.36166561 </v>
   <v>      -0.00000000       0.79961802      -0.59964769 </v>
   <v>      -0.00000000      -0.79961802      -0.59964769 </v>
   <v>      -0.00000000      -1.62372384      -1.07650767 </v>
   <v>      -0.00000000       1.62372384      -1.07650767 </v>
   <v>      -0.00000000       0.13507312       0.54833309 </v>
   <v>      -0.00000000      -0.13507312       0.54833309 </v>
   <v>      -0.23507163       0.38772794      -0.07488384 </v>
   <v>       0.23507163      -0.38772794      -0.07488384 </v>
   <v>      -0.23507163      -0.38772794      -0.07488384 </v>
   <v>       0.23507163       0.38772794      -0.07488384 </v>
  </varray>
  <varray name="stress" >
   <v>     -49.84492091       0.00000000       0.00000000 </v>
   <v>       0.00000000     -36.22435246       0.00000000 </v>
   <v>       0.00000000       0.00000000     -66.34592361 </v>
  </varray>
  <energy>
   <i name="e_fr_energy">    -72.69420442 </i>
   <i name="e_wo_entrp">    -72.69420442 </i>
   <i name="e_0_energy">      0.00000000 </i>
  </energy>
  <time name="totalsc">    2.75    2.77</time>
 </calculation>
 <calculation>
  <scstep>
   <time name="dav">    0.17    0.17</time>
   <time name="total">    0.19    0.19</time>
   <energy>
    <i name="alphaZ">     60.10579475 </i>
    <i name="ewald">  -2559.99109979 </i>
    <i name="hartreedc">   -762.30084128 </i>
    <i name="XCdc">    183.88428259 </i>
    <i name="pawpsdc">   6756.40570546 </i>
    <i name="pawaedc">  -6807.57252531 </i>
    <i name="eentropy">      0.00000000 </i>
    <i name="bandstr">   -712.96232595 </i>
    <i name="atom">   3769.08782378 </i>
    <i name="e_fr_energy">    -73.34318576 </i>
    <i name="e_wo_entrp">    -73.34318576 </i>
    <i name="e_0_energy">    -73.34318576 </i>
   </energy>
  </scstep>
  <scstep>
   <time name="diag">    0.05    0.05</time>
   <time name="diis">    0.09    0.09</time>
   <time name="orth">    0.01    0.01</time>
   <time name="total">    0.16    0.16</time>
   <energy>
    <i name="e_fr_energy">    -73.65929603 </i>
    <i name="e_wo_entrp">    -73.65929603 </i>
    <i name="e_0_energy">    -73.65929603 </i>
   </energy>
  </scstep>
  <scstep>
   <time name="diag">    0.05    0.05</time>
   <time name="diis">    0.11    0.11</time>
   <time name="orth">    0.01    0.01</time>
   <time name="total">    0.19    0.19</time>
   <energy>
    <i name="e_fr_energy">    -73.60173643 </i>
    <i name="e_wo_entrp">    -73.60173643 </i>
    <i name="e_0_energy">    -73.60173643 </i>
   </energy>
  </scstep>
  <scstep>
   <time name="diag">    0.05    0.05</time>
   <time name="diis">    0.10    0.10</time>
   <time name="orth">    0.01    0.01</time>
   <time name="total">    0.17    0.17</time>
   <energy>
    <i name="e_fr_energy">    -73.58301757 </i>
    <i name="e_wo_entrp">    -73.58301757 </i>
    <i name="e_0_energy">    -73.58301757 </i>
   </energy>
  </scstep>
  <scstep>
   <time name="diag">    0.05    0.05</time>
   <time name="diis">    0.11    0.11</time>
   <time name="orth">    0.01    0.01</time>
   <time name="total">    0.18    0.18</time>
   <energy>
    <i name="e_fr_energy">    -73.58641739 </i>
    <i name="e_wo_entrp">    -73.58641739 </i>
    <i name="e_0_energy">    -73.58641739 </i>
   </energy>
  </scstep>
  <scstep>
   <time name="diag">    0.05    0.05</time>
   <time name="diis">    0.09    0.09</time>
   <time name="orth">    0.01    0.01</time>
   <time name="total">    0.17    0.17</time>
   <energy>
    <i name="e_fr_energy">    -73.58779332 </i>
    <i name="e_wo_entrp">    -73.58779332 </i>
    <i name="e_0_energy">    -73.58779332 </i>
   </energy>
  </scstep>
  <scstep>
   <time name="diag">    0.05    0.05</time>
   <time name="diis">    0.10    0.10</time>
   <time name="orth">    0.01    0.01</time>
   <time name="total">    0.17    0.17</time>
   <energy>
    <i name="e_fr_energy">    -73.58740754 </i>
    <i name="e_wo_entrp">    -73.58740754 </i>
    <i name="e_0_energy">    -73.58740754 </i>
   </energy>
  </scstep>
  <scstep>
   <time name="diag">    0.05    0.05</time>
   <time name="diis">    0.10    0.10</time>
   <time name="orth">    0.01    0.01</time>
   <time name="total">    0.18    0.18</time>
   <energy>
[...]
       <r>   -9.0511    1.0000 </r>
       <r>   -4.9236    1.0000 </r>
       <r>   -4.7366    1.0000 </r>
       <r>   -2.1954    1.0000 </r>
       <r>   -2.1597    1.0000 </r>
       <r>   -2.0636    1.0000 </r>
       <r>   -1.9829    1.0000 </r>
       <r>   -1.7715    1.0000 </r>
       <r>   -1.6179    1.0000 </r>
       <r>   -0.0405    1.0000 </r>
       <r>    0.2137    1.0000 </r>
       <r>    0.3142    1.0000 </r>
       <r>    0.4790    1.0000 </r>
       <r>    0.6410    1.0000 </r>
       <r>    0.7655    1.0000 </r>
       <r>    0.9513    1.0000 </r>
       <r>    1.0447    1.0000 </r>
       <r>    1.1986    1.0000 </r>
       <r>    1.3549    1.0000 </r>
       <r>    1.7427    1.0000 </r>
       <r>    2.0959    1.0000 </r>
       <r>    2.2565    1.0000 </r>
       <r>    2.3555    1.0000 </r>
       <r>    2.4887    1.0000 </r>
       <r>    2.5447    1.0000 </r>
       <r>    5.5821    0.0000 </r>
       <r>    5.8989    0.0000 </r>
       <r>    6.5256    0.0000 </r>
       <r>    6.7739    0.0000 </r>
       <r>    6.8274    0.0000 </r>
       <r>    6.9900    0.0000 </r>
       <r>    7.1369    0.0000 </r>
       <r>    7.2594    0.0000 </r>
       <r>    8.5515    0.0000 </r>
       <r>    8.7358    0.0000 </r>
      </set>
      <set comment="kpoint 8">
       <r>  -41.3458    1.0000 </r>
       <r>  -41.3458    1.0000 </r>
       <r>  -40.6904    1.0000 </r>
       <r>  -40.6904    1.0000 </r>
       <r>  -40.6897    1.0000 </r>
       <r>  -40.6896    1.0000 </r>
       <r>  -12.2188    1.0000 </r>
       <r>  -12.1993    1.0000 </r>
       <r>   -9.4127    1.0000 </r>
       <r>   -9.3972    1.0000 </r>
       <r>   -9.2932    1.0000 </r>
       <r>   -9.2550    1.0000 </r>
       <r>   -9.0816    1.0000 </r>
       <r>   -9.0536    1.0000 </r>
       <r>   -4.8348    1.0000 </r>
       <r>   -4.7562    1.0000 </r>
       <r>   -2.2054    1.0000 </r>
       <r>   -2.1616    1.0000 </r>
       <r>   -1.9916    1.0000 </r>
       <r>   -1.8928    1.0000 </r>
       <r>   -1.7718    1.0000 </r>
       <r>   -1.6879    1.0000 </r>
       <r>   -0.0953    1.0000 </r>
       <r>    0.0283    1.0000 </r>
       <r>    0.2895    1.0000 </r>
       <r>    0.3792    1.0000 </r>
       <r>    0.5943    1.0000 </r>
       <r>    0.6558    1.0000 </r>
       <r>    1.0530    1.0000 </r>
       <r>    1.1136    1.0000 </r>
       <r>    1.3599    1.0000 </r>
       <r>    1.4153    1.0000 </r>
       <r>    1.6815    1.0000 </r>
       <r>    1.8996    1.0000 </r>
       <r>    2.2387    1.0000 </r>
       <r>    2.2723    1.0000 </r>
       <r>    2.5228    1.0000 </r>
       <r>    2.6162    1.0000 </r>
       <r>    5.7486    0.0000 </r>
       <r>    5.9006    0.0000 </r>
       <r>    6.6627    0.0000 </r>
       <r>    6.7026    0.0000 </r>
       <r>    7.0073    0.0000 </r>
       <r>    7.1393    0.0000 </r>
       <r>    7.3190    0.0000 </r>
       <r>    7.4236    0.0000 </r>
       <r>    8.5787    0.0000 </r>
       <r>    8.7477    0.0000 </r>
      </set>
     </set>
    </set>
   </array>
  </eigenvalues>
  <separator name="orbital magnetization" >
   <v name="MAGDIPOLOUT">      0.00000000      0.00000000      0.00000000</v>
  </separator>
  <dos>
   <i name="efermi">      2.84921816 </i>
   <total>
    <array>
     <dimension dim="1">gridpoints</dimension>
     <dimension dim="2">spin</dimension>
     <field>energy</field>
     <field>total</field>
     <field>integrated</field>
     <set>
      <set comment="spin 1">
       <r>   -43.8506     0.0000     0.0000 </r>
       <r>   -43.6669     0.0000     0.0000 </r>
       <r>   -43.4832     0.0000     0.0000 </r>
       <r>   -43.2995     0.0000     0.0000 </r>
       <r>   -43.1158     0.0000     0.0000 </r>
       <r>   -42.9322     0.0000     0.0000 </r>
       <r>   -42.7485     0.0000     0.0000 </r>
       <r>   -42.5648     0.0000     0.0000 </r>
       <r>   -42.3811     0.0000     0.0000 </r>
       <r>   -42.1975     0.0000     0.0000 </r>
       <r>   -42.0138     0.0000     0.0000 </r>
       <r>   -41.8301     0.0000     0.0000 </r>
       <r>   -41.6464     0.0000     0.0000 </r>
       <r>   -41.4628     0.0000     0.0000 </r>
       <r>   -41.2791     0.0000     4.0000 </r>
       <r>   -41.0954     0.0000     4.0000 </r>
       <r>   -40.9117     0.0000     4.0000 </r>
       <r>   -40.7281     0.0000     4.0000 </r>
       <r>   -40.5444     0.0000    12.0000 </r>
       <r>   -40.3607     0.0000    12.0000 </r>
       <r>   -40.1770     0.0000    12.0000 </r>
       <r>   -39.9933     0.0000    12.0000 </r>
       <r>   -39.8097     0.0000    12.0000 </r>
       <r>   -39.6260     0.0000    12.0000 </r>
       <r>   -39.4423     0.0000    12.0000 </r>
       <r>   -39.2586     0.0000    12.0000 </r>
       <r>   -39.0750     0.0000    12.0000 </r>
       <r>   -38.8913     0.0000    12.0000 </r>
       <r>   -38.7076     0.0000    12.0000 </r>
       <r>   -38.5239     0.0000    12.0000 </r>
       <r>   -38.3403     0.0000    12.0000 </r>
       <r>   -38.1566     0.0000    12.0000 </r>
       <r>   -37.9729     0.0000    12.0000 </r>
       <r>   -37.7892     0.0000    12.0000 </r>
       <r>   -37.6056     0.0000    12.0000 </r>
       <r>   -37.4219     0.0000    12.0000 </r>
       <r>   -37.2382     0.0000    12.0000 </r>
       <r>   -37.0545     0.0000    12.0000 </r>
       <r>   -36.8708     0.0000    12.0000 </r>
       <r>   -36.6872     0.0000    12.0000 </r>
       <r>   -36.5035     0.0000    12.0000 </r>
       <r>   -36.3198     0.0000    12.0000 </r>
       <r>   -36.1361     0.0000    12.0000 </r>
       <r>   -35.9525     0.0000    12.0000 </r>
       <r>   -35.7688     0.0000    12.0000 </r>
       <r>   -35.5851     0.0000    12.0000 </r>
       <r>   -35.4014     0.0000    12.0000 </r>
       <r>   -35.2178     0.0000    12.0000 </r>
       <r>   -35.0341     0.0000    12.0000 </r>
       <r>   -34.8504     0.0000    12.0000 </r>
       <r>   -34.6667     0.0000    12.0000 </r>
       <r>   -34.4830     0.0000    12.0000 </r>
       <r>   -34.2994     0.0000    12.0000 </r>
       <r>   -34.1157     0.0000    12.0000 </r>
       <r>   -33.9320     0.0000    12.0000 </r>
       <r>   -33.7483     0.0000    12.0000 </r>
       <r>   -33.5647     0.0000    12.0000 </r>
       <r>   -33.3810     0.0000    12.0000 </r>
       <r>   -33.1973     0.0000    12.0000 </r>
       <r>   -33.0136     0.0000    12.0000 </r>
       <r>   -32.8300     0.0000    12.0000 </r>
       <r>   -32.6463     0.0000    12.0000 </r>
       <r>   -32.4626     0.0000    12.0000 </r>
       <r>   -32.2789     0.0000    12.0000 </r>
       <r>   -32.0953     0.0000    12.0000 </r>
       <r>   -31.9116     0.0000    12.0000 </r>
       <r>   -31.7279     0.0000    12.0000 </r>
       <r>   -31.5442     0.0000    12.0000 </r>
       <r>   -31.3605     0.0000    12.0000 </r>
       <r>   -31.1769     0.0000    12.0000 </r>
       <r>   -30.9932     0.0000    12.0000 </r>
       <r>   -30.8095     0.0000    12.0000 </r>
       <r>   -30.6258     0.0000    12.0000 </r>
       <r>   -30.4422     0.0000    12.0000 </r>
       <r>   -30.2585     0.0000    12.0000 </r>
       <r>   -30.0748     0.0000    12.0000 </r>
       <r>   -29.8911     0.0000    12.0000 </r>
       <r>   -29.7075     0.0000    12.0000 </r>
       <r>   -29.5238     0.0000    12.0000 </r>
       <r>   -29.3401     0.0000    12.0000 </r>
       <r>   -29.1564     0.0000    12.0000 </r>
       <r>   -28.9728     0.0000    12.0000 </r>
       <r>   -28.7891     0.0000    12.0000 </r>
       <r>   -28.6054     0.0000    12.0000 </r>
       <r>   -28.4217     0.0000    12.0000 </r>
       <r>   -28.2380     0.0000    12.0000 </r>
       <r>   -28.0544     0.0000    12.0000 </r>
       <r>   -27.8707     0.0000    12.0000 </r>
       <r>   -27.6870     0.0000    12.0000 </r>
       <r>   -27.5033     0.0000    12.0000 </r>
       <r>   -27.3197     0.0000    12.0000 </r>
       <r>   -27.1360     0.0000    12.0000 </r>
       <r>   -26.9523     0.0000    12.0000 </r>
       <r>   -26.7686     0.0000    12.0000 </r>
       <r>   -26.5850     0.0000    12.0000 </r>
       <r>   -26.4013     0.0000    12.0000 </r>
       <r>   -26.2176     0.0000    12.0000 </r>
       <r>   -26.0339     0.0000    12.0000 </r>
       <r>   -25.8502     0.0000    12.0000 </r>
       <r>   -25.6666     0.0000    12.0000 </r>
       <r>   -25.4829     0.0000    12.0000 </r>
       <r>   -25.2992     0.0000    12.0000 </r>
       <r>   -25.1155     0.0000    12.0000 </r>
       <r>   -24.9319     0.0000    12.0000 </r>
       <r>   -24.7482     0.0000    12.0000 </r>
       <r>   -24.5645     0.0000    12.0000 </r>
       <r>   -24.3808     0.0000    12.0000 </r>
       <r>   -24.1972     0.0000    12.0000 </r>
       <r>   -24.0135     0.0000    12.0000 </r>
       <r>   -23.8298     0.0000    12.0000 </r>
       <r>   -23.6461     0.0000    12.0000 </r>
       <r>   -23.4625     0.0000    12.0000 </r>
       <r>   -23.2788     0.0000    12.0000 </r>
       <r>   -23.0951     0.0000    12.0000 </r>
       <r>   -22.9114     0.0000    12.0000 </r>
       <r>   -22.7277     0.0000    12.0000 </r>
       <r>   -22.5441     0.0000    12.0000 </r>
       <r>   -22.3604     0.0000    12.0000 </r>
       <r>   -22.1767     0.0000    12.0000 </r>
       <r>   -21.9930     0.0000    12.0000 </r>
       <r>   -21.8094     0.0000    12.0000 </r>
       <r>   -21.6257     0.0000    12.0000 </r>
       <r>   -21.4420     0.0000    12.0000 </r>
       <r>   -21.2583     0.0000    12.0000 </r>
       <r>   -21.0747     0.0000    12.0000 </r>
       <r>   -20.8910     0.0000    12.0000 </r>
       <r>   -20.7073     0.0000    12.0000 </r>
       <r>   -20.5236     0.0000    12.0000 </r>
       <r>   -20.3400     0.0000    12.0000 </r>
       <r>   -20.1563     0.0000    12.0000 </r>
       <r>   -19.9726     0.0000    12.0000 </r>
       <r>   -19.7889     0.0000    12.0000 </r>
       <r>   -19.6052     0.0000    12.0000 </r>
       <r>   -19.4216     0.0000    12.0000 </r>
       <r>   -19.2379     0.0000    12.0000 </r>
       <r>   -19.0542     0.0000    12.0000 </r>
       <r>   -18.8705     0.0000    12.0000 </r>
       <r>   -18.6869     0.0000    12.0000 </r>
       <r>   -18.5032     0.0000    12.0000 </r>
       <r>   -18.3195     0.0000    12.0000 </r>
       <r>   -18.1358     0.0000    12.0000 </r>
       <r>   -17.9522     0.0000    12.0000 </r>
       <r>   -17.7685     0.0000    12.0000 </r>
       <r>   -17.5848     0.0000    12.0000 </r>
       <r>   -17.4011     0.0000    12.0000 </r>
       <r>   -17.2174     0.0000    12.0000 </r>
       <r>   -17.0338     0.0000    12.0000 </r>
       <r>   -16.8501     0.0000    12.0000 </r>
       <r>   -16.6664     0.0000    12.0000 </r>
       <r>   -16.4827     0.0000    12.0000 </r>
       <r>   -16.2991     0.0000    12.0000 </r>
       <r>   -16.1154     0.0000    12.0000 </r>
       <r>   -15.9317     0.0000    12.0000 </r>
       <r>   -15.7480     0.0000    12.0000 </r>
       <r>   -15.5644     0.0000    12.0000 </r>
       <r>   -15.3807     0.0000    12.0000 </r>
       <r>   -15.1970     0.0000    12.0000 </r>
       <r>   -15.0133     0.0000    12.0000 </r>
       <r>   -14.8297     0.0000    12.0000 </r>
       <r>   -14.6460     0.0000    12.0000 </r>
       <r>   -14.4623     0.0000    12.0000 </r>
       <r>   -14.2786     0.0000    12.0000 </r>
       <r>   -14.0949     0.0000    12.0000 </r>
       <r>   -13.9113     0.0000    12.0000 </r>
       <r>   -13.7276     0.0000    12.0000 </r>
       <r>   -13.5439     0.0000    12.0000 </r>
       <r>   -13.3602     0.0000    12.0000 </r>
       <r>   -13.1766     0.0000    12.0000 </r>
       <r>   -12.9929     0.0000    12.0000 </r>
       <r>   -12.8092     0.0000    12.0000 </r>
       <r>   -12.6255     0.0000    12.0000 </r>
       <r>   -12.4419     0.0000    12.0000 </r>
       <r>   -12.2582    18.0063    13.3478 </r>
       <r>   -12.0745     0.0000    16.0000 </r>
       <r>   -11.8908     0.0000    16.0000 </r>
       <r>   -11.7072     0.0000    16.0000 </r>
       <r>   -11.5235     0.0000    16.0000 </r>
       <r>   -11.3398     0.0000    16.0000 </r>
       <r>   -11.1561     0.0000    16.0000 </r>
       <r>   -10.9724     0.0000    16.0000 </r>
       <r>   -10.7888     0.0000    16.0000 </r>
       <r>   -10.6051     0.0000    16.0000 </r>
       <r>   -10.4214     0.0000    16.0000 </r>
       <r>   -10.2377     0.0000    16.0000 </r>
       <r>   -10.0541     0.0000    16.0000 </r>
       <r>    -9.8704     0.0000    16.0000 </r>
       <r>    -9.6867     0.0000    16.0000 </r>
       <r>    -9.5030     0.0000    16.0000 </r>
       <r>    -9.3194     9.1170    19.8539 </r>
       <r>    -9.1357    10.0180    23.3828 </r>
       <r>    -8.9520     7.8657    27.1304 </r>
       <r>    -8.7683     0.0000    28.0000 </r>
       <r>    -8.5846     0.0000    28.0000 </r>
       <r>    -8.4010     0.0000    28.0000 </r>
       <r>    -8.2173     0.0000    28.0000 </r>
       <r>    -8.0336     0.0000    28.0000 </r>
       <r>    -7.8499     0.0000    28.0000 </r>
       <r>    -7.6663     0.0000    28.0000 </r>
       <r>    -7.4826     0.0000    28.0000 </r>
       <r>    -7.2989     0.0000    28.0000 </r>
       <r>    -7.1152     0.0000    28.0000 </r>
       <r>    -6.9316     0.0000    28.0000 </r>
       <r>    -6.7479     0.0000    28.0000 </r>
       <r>    -6.5642     0.0000    28.0000 </r>
       <r>    -6.3805     0.0000    28.0000 </r>
       <r>    -6.1969     0.0000    28.0000 </r>
       <r>    -6.0132     0.0000    28.0000 </r>
       <r>    -5.8295     0.0000    28.0000 </r>
       <r>    -5.6458     0.0000    28.0000 </r>
       <r>    -5.4621     0.0000    28.0000 </r>
       <r>    -5.2785     1.8374    28.1625 </r>
       <r>    -5.0948     5.7442    28.8849 </r>
       <r>    -4.9111     9.1142    29.9503 </r>
       <r>    -4.7274     0.0000    32.0000 </r>
       <r>    -4.5438     0.0000    32.0000 </r>
       <r>    -4.3601     0.0000    32.0000 </r>
       <r>    -4.1764     0.0000    32.0000 </r>
       <r>    -3.9927     0.0000    32.0000 </r>
       <r>    -3.8091     0.0000    32.0000 </r>
       <r>    -3.6254     0.0000    32.0000 </r>
       <r>    -3.4417     0.0000    32.0000 </r>
       <r>    -3.2580     0.0000    32.0000 </r>
       <r>    -3.0744     0.0000    32.0000 </r>
       <r>    -2.8907     0.0000    32.0000 </r>
       <r>    -2.7070     0.0000    32.0000 </r>
       <r>    -2.5233     0.0000    32.0000 </r>
       <r>    -2.3396     9.1504    33.1626 </r>
       <r>    -2.1560    11.9399    36.4160 </r>
       <r>    -1.9723     8.6603    39.2031 </r>
       <r>    -1.7886    24.8177    41.4000 </r>
       <r>    -1.6049     0.0000    44.0000 </r>
       <r>    -1.4213     0.0000    44.0000 </r>
       <r>    -1.2376     0.0000    44.0000 </r>
       <r>    -1.0539     0.0000    44.0000 </r>
       <r>    -0.8702     0.0000    44.0000 </r>
       <r>    -0.6866     0.0000    44.0000 </r>
       <r>    -0.5029     0.0000    44.0000 </r>
       <r>    -0.3192     0.0000    44.0000 </r>
       <r>    -0.1355     0.0000    44.0000 </r>
       <r>     0.0482    17.3734    46.8653 </r>
       <r>     0.2318     7.0472    48.3015 </r>
       <r>     0.4155    14.4287    50.4635 </r>
       <r>     0.5992    12.9986    52.6770 </r>
       <r>     0.7829    10.2417    55.1721 </r>
       <r>     0.9665     6.5548    56.0744 </r>
       <r>     1.1502     5.5777    58.4109 </r>
       <r>     1.3339     6.5584    59.9607 </r>
       <r>     1.5176    13.7666    61.6191 </r>
       <r>     1.7012     5.4901    64.0423 </r>
       <r>     1.8849    24.6267    66.1412 </r>
       <r>     2.0686    10.0550    68.3228 </r>
       <r>     2.2523    15.3772    70.7236 </r>
       <r>     2.4359     0.0000    72.0000 </r>
       <r>     2.6196    13.7136    74.6571 </r>
       <r>     2.8033     0.0000    76.0000 </r>
       <r>     2.9870     0.0000    76.0000 </r>
       <r>     3.1707     0.0000    76.0000 </r>
       <r>     3.3543     0.0000    76.0000 </r>
       <r>     3.5380     0.0000    76.0000 </r>
       <r>     3.7217     0.0000    76.0000 </r>
       <r>     3.9054     0.0000    76.0000 </r>
       <r>     4.0890     0.0000    76.0000 </r>
       <r>     4.2727     0.0000    76.0000 </r>
       <r>     4.4564     0.0000    76.0000 </r>
       <r>     4.6401     0.0000    76.0000 </r>
       <r>     4.8237     0.0000    76.0000 </r>
       <r>     5.0074     0.0000    76.0000 </r>
       <r>     5.1911     0.0000    76.0000 </r>
       <r>     5.3748     0.0000    76.0000 </r>
       <r>     5.5584     2.6923    76.2598 </r>
       <r>     5.7421     4.8892    77.2218 </r>
       <r>     5.9258     5.1509    78.6305 </r>
       <r>     6.1095     6.7548    79.5451 </r>
       <r>     6.2932     0.0000    80.0000 </r>
       <r>     6.4768     4.6474    80.1754 </r>
       <r>     6.6605    12.2848    81.8825 </r>
       <r>     6.8442     4.4511    83.9611 </r>
       <r>     7.0279    11.9997    85.1111 </r>
       <r>     7.2115    11.4564    87.5003 </r>
       <r>     7.3952    11.4575    89.4003 </r>
       <r>     7.5789     4.7692    91.7577 </r>
       <r>     7.7626     0.0000    92.0000 </r>
       <r>     7.9462     0.0000    92.0000 </r>
       <r>     8.1299     0.0000    92.0000 </r>
       <r>     8.3136     1.8179    92.1414 </r>
       <r>     8.4973     5.3257    92.9079 </r>
       <r>     8.6809    13.9333    94.6615 </r>
       <r>     8.8646     0.0000    96.0000 </r>
       <r>     9.0483     0.0000    96.0000 </r>
       <r>     9.2320     0.0000    96.0000 </r>
       <r>     9.4157     0.0000    96.0000 </r>
       <r>     9.5993     0.0000    96.0000 </r>
       <r>     9.7830     0.0000    96.0000 </r>
       <r>     9.9667     0.0000    96.0000 </r>
       <r>    10.1504     0.0000    96.0000 </r>
       <r>    10.3340     0.0000    96.0000 </r>
       <r>    10.5177     0.0000    96.0000 </r>
       <r>    10.7014     0.0000    96.0000 </r>
       <r>    10.8851     0.0000    96.0000 </r>
       <r>    11.0687     0.0000    96.0000 </r>
       <r>    11.2524     0.0000    96.0000 </r>
      </set>
     </set>
    </array>
   </total>
  </dos>
 </calculation>
 <structure name="finalpos" >
  <crystal>
   <varray name="basis" >
    <v>       7.62782294       0.00000000       0.00000000 </v>
    <v>       0.00000000       6.18828025       0.00000000 </v>
    <v>       0.00000000       0.00000000       5.97095547 </v>
   </varray>
   <i name="volume">    281.84764427 </i>
   <varray name="rec_basis" >
    <v>       0.13109901       0.00000000       0.00000000 </v>
    <v>       0.00000000       0.16159578       0.00000000 </v>
    <v>       0.00000000       0.00000000       0.16747738 </v>
   </varray>
  </crystal>
  <varray name="positions" >
   <v>       0.00000000       0.77130878       0.41341016 </v>
   <v>       0.50000000       0.22869122       0.91341016 </v>
   <v>       0.21177678       0.60286638       0.29645886 </v>
   <v>       0.28822322       0.39713362       0.79645886 </v>
   <v>       0.71177678       0.39713362       0.79645886 </v>
   <v>       0.78822322       0.60286638       0.29645886 </v>
   <v>       0.00000000       0.06307733       0.25696399 </v>
   <v>       0.50000000       0.93692267       0.75696399 </v>
   <v>       0.00000000      -0.18528403       0.75033185 </v>
   <v>       0.50000000       0.18528403       0.25033185 </v>
   <v>       0.00000000       0.42984330       0.00911234 </v>
   <v>       0.50000000       0.57015670       0.50911234 </v>
   <v>       0.73187438       0.76969555       0.94509566 </v>
   <v>       0.76812562       0.23030445       0.44509566 </v>
   <v>       0.23187438       0.23030445       0.44509566 </v>
   <v>       0.26812562       0.76969555       0.94509566 </v>
  </varray>
 </structure>
</modeling>
