unknown system                          
           1
     7.448773    0.000000    0.000000
     0.000000    6.432062    0.000000
     0.000000    0.000000    5.989672
   P    S    Li
   2   8   6
Direct configuration=     1
   0.00000000  0.92200662  0.42587935
   0.50000000  0.07799338  0.92587935
   0.22347338  0.74580378  0.37542045
   0.27652662  0.25419622  0.87542045
   0.72347338  0.25419622  0.87542045
   0.77652662  0.74580378  0.37542045
   0.00000000  0.15813928  0.20028583
   0.50000000  0.84186072  0.70028583
   0.00000000  0.03227096  0.74347704
   0.50000000  0.96772904  0.24347704
   0.00000000  0.46770244  0.07310690
   0.50000000  0.53229756  0.57310690
   0.77759989  0.71044541  0.85966867
   0.72240011  0.28955459  0.35966867
   0.27759989  0.28955459  0.35966867
   0.22240011  0.71044541  0.85966867
unknown system                          
           1
     7.876207    0.000000    0.000000
     0.000000    6.426277    0.000000
     0.000000    0.000000    5.993661
   P    S    Li
   2   8   6
Direct configuration=     2
   0.00000000  0.91567782  0.43630867
   0.50000000  0.08432218  0.93630867
   0.21590970  0.73107948  0.36841342
   0.28409030  0.26892052  0.86841342
   0.71590970  0.26892052  0.86841342
   0.78409030  0.73107948  0.36841342
   0.00000000  0.14954784  0.21302605
   0.50000000  0.85045216  0.71302605
   0.00000000  0.01326059  0.73358525
   0.50000000  0.98673941  0.23358525
   0.00000000  0.47075858  0.07781529
   0.50000000  0.52924142  0.57781529
   0.77487541  0.71446486  0.85768263
   0.72512459  0.28553514  0.35768263
   0.27487541  0.28553514  0.35768263
   0.22512459  0.71446486  0.85768263
unknown system                          
           1
     8.041386    0.000000    0.000000
     0.000000    6.424041    0.000000
     0.000000    0.000000    5.995203
   P    S    Li
   2   8   6
Direct configuration=     3
   0.00000000  0.91322991  0.44033632
   0.50000000  0.08677009  0.94033632
   0.21314540  0.72538427  0.36570740
   0.28685460  0.27461573  0.86570740
   0.71314540  0.27461573  0.86570740
   0.78685460  0.72538427  0.36570740
   0.00000000  0.14622475  0.21794614
   0.50000000  0.85377525  0.71794614
   0.00000000  0.00590757  0.72976519
   0.50000000  0.99409243  0.22976519
   0.00000000  0.47194067  0.07963360
   0.50000000  0.52805933  0.57963360
   0.77387969  0.71601954  0.85691566
   0.72612031  0.28398046  0.35691566
   0.27387969  0.28398046  0.35691566
   0.22612031  0.71601954  0.85691566
unknown system                          
           1
     8.239127    0.000000    0.000000
     0.000000    6.382948    0.000000
     0.000000    0.000000    6.059084
   P    S    Li
   2   8   6
Direct configuration=     4
   0.00000000  0.90119422  0.43427690
   0.50000000  0.09880578  0.93427690
   0.20745354  0.71641990  0.36052327
   0.29254646  0.28358010  0.86052327
   0.70745354  0.28358010  0.86052327
   0.79254646  0.71641990  0.36052327
   0.00000000  0.14142197  0.22527233
   0.50000000  0.85857803  0.72527233
   0.00000000 -0.00290334  0.73741631
   0.50000000  0.00290334  0.23741631
   0.00000000  0.47370356  0.08409761
   0.50000000  0.52629644  0.58409761
   0.77160736  0.71901148  0.85540884
   0.72839264  0.28098852  0.35540884
   0.27160736  0.28098852  0.35540884
   0.22839264  0.71901148  0.85540884
unknown system                          
           1
     8.643046    0.000000    0.000000
     0.000000    6.299008    0.000000
     0.000000    0.000000    6.189572
   P    S    Li
   2   8   6
Direct configuration=     5
   0.00000000  0.87645105  0.42203002
   0.50000000  0.12354895  0.92203002
   0.19610603  0.69799082  0.35004546
   0.30389397  0.30200918  0.85004546
   0.69610603  0.30200918  0.85004546
   0.80389397  0.69799082  0.35004546
   0.00000000  0.13154833  0.24007951
   0.50000000  0.86845167  0.74007951
   0.00000000 -0.02101695  0.75288021
   0.50000000  0.02101695  0.25288021
   0.00000000  0.47732776  0.09311996
   0.50000000  0.52267224  0.59311996
   0.76707714  0.72516235  0.85236337
   0.73292286  0.27483765  0.35236337
   0.26707714  0.27483765  0.35236337
   0.23292286  0.72516235  0.85236337
unknown system                          
           1
     8.685242    0.000000    0.000000
     0.000000    6.186957    0.000000
     0.000000    0.000000    6.109657
   P    S    Li
   2   8   6
Direct configuration=     6
  -0.00000000  0.86028752  0.42512811
   0.50000000  0.13971248  0.92512811
   0.19033241  0.68900663  0.34413784
   0.30966759  0.31099337  0.84413784
   0.69033241  0.31099337  0.84413784
   0.80966759  0.68900663  0.34413784
  -0.00000000  0.13048469  0.24384371
   0.50000000  0.86951531  0.74384371
  -0.00000000 -0.03550271  0.75495298
   0.50000000  0.03550271  0.25495298
  -0.00000000  0.47945633  0.09918474
   0.50000000  0.52054367  0.59918474
   0.76452351  0.72941763  0.85077107
   0.73547649  0.27058237  0.35077107
   0.26452351  0.27058237  0.35077107
   0.23547649  0.72941763  0.85077107
unknown system                          
           1
     8.742912    0.000000    0.000000
     0.000000    6.033816    0.000000
     0.000000    0.000000    6.000438
   P    S    Li
   2   8   6
Direct configuration=     7
  -0.00000000  0.83779675  0.42941765
   0.50000000  0.16220325  0.92941765
   0.18247994  0.67650555  0.33595829
   0.31752006  0.32349445  0.83595829
   0.68247994  0.32349445  0.83595829
   0.81752006  0.67650555  0.33595829
  -0.00000000  0.12900468  0.24905554
   0.50000000  0.87099532  0.74905554
  -0.00000000 -0.05565896  0.75782289
   0.50000000  0.05565896  0.25782289
  -0.00000000  0.48241812  0.10758190
   0.50000000  0.51758188  0.60758190
   0.76105042  0.73533866  0.84856640
   0.73894958  0.26466134  0.34856640
   0.26105042  0.26466134  0.34856640
   0.23894958  0.73533866  0.84856640
unknown system                          
           1
     8.814260    0.000000    0.000000
     0.000000    5.949645    0.000000
     0.000000    0.000000    5.851592
   P    S    Li
   2   8   6
Direct configuration=     8
  -0.00000000  0.83497334  0.43759115
   0.50000000  0.16502666  0.93759115
   0.18490751  0.66376726  0.32804592
   0.31509249  0.33623274  0.82804592
   0.68490751  0.33623274  0.82804592
   0.81509249  0.66376726  0.32804592
  -0.00000000  0.12680594  0.25287091
   0.50000000  0.87319406  0.75287091
  -0.00000000 -0.07397192  0.75846590
   0.50000000  0.07397192  0.25846590
  -0.00000000  0.48443225  0.11273229
   0.50000000  0.51556775  0.61273229
   0.75813709  0.74045615  0.84758763
   0.74186291  0.25954385  0.34758763
   0.25813709  0.25954385  0.34758763
   0.24186291  0.74045615  0.84758763
unknown system                          
           1
     8.813747    0.000000    0.000000
     0.000000    5.950249    0.000000
     0.000000    0.000000    5.852661
   P    S    Li
   2   8   6
Direct configuration=     9
  -0.00000000  0.83499391  0.43753094
   0.50000000  0.16500609  0.93753094
   0.18489022  0.66386006  0.32810421
   0.31510978  0.33613994  0.82810421
   0.68489022  0.33613994  0.82810421
   0.81510978  0.66386006  0.32810421
  -0.00000000  0.12682195  0.25284280
   0.50000000  0.87317805  0.75284280
  -0.00000000 -0.07383851  0.75846116
   0.50000000  0.07383851  0.25846116
  -0.00000000  0.48441757  0.11269436
   0.50000000  0.51558243  0.61269436
   0.75815785  0.74041887  0.84759484
   0.74184215  0.25958113  0.34759484
   0.25815785  0.25958113  0.34759484
   0.24184215  0.74041887  0.84759484
unknown system                          
           1
     8.759618    0.000000    0.000000
     0.000000    5.952153    0.000000
     0.000000    0.000000    5.826910
   P    S    Li
   2   8   6
Direct configuration=    10
  -0.00000000  0.83512480  0.43195786
   0.50000000  0.16487520  0.93195786
   0.18864747  0.66058297  0.32544279
   0.31135253  0.33941703  0.82544279
   0.68864747  0.33941703  0.82544279
   0.81135253  0.66058297  0.32544279
  -0.00000000  0.12453082  0.25438157
   0.50000000  0.87546918  0.75438157
  -0.00000000 -0.08076836  0.76686669
   0.50000000  0.08076836  0.26686669
  -0.00000000  0.48470952  0.11240187
   0.50000000  0.51529048  0.61240187
   0.75657163  0.74267820  0.84821690
   0.74342837  0.25732180  0.34821690
   0.25657163  0.25732180  0.34821690
   0.24342837  0.74267820  0.84821690
unknown system                          
           1
     8.713959    0.000000    0.000000
     0.000000    5.953759    0.000000
     0.000000    0.000000    5.805189
   P    S    Li
   2   8   6
Direct configuration=    11
  -0.00000000  0.83523518  0.42723605
   0.50000000  0.16476482  0.92723605
   0.19183638  0.65781954  0.32318788
   0.30816362  0.34218046  0.82318788
   0.69183638  0.34218046  0.82318788
   0.80816362  0.65781954  0.32318788
  -0.00000000  0.12259882  0.25568530
   0.50000000  0.87740118  0.75568530
  -0.00000000 -0.08661200  0.77398830
   0.50000000  0.08661200  0.27398830
  -0.00000000  0.48495571  0.11215406
   0.50000000  0.51504429  0.61215406
   0.75522534  0.74458339  0.84874394
   0.74477466  0.25541661  0.34874394
   0.25522534  0.25541661  0.34874394
   0.24477466  0.74458339  0.84874394
unknown system                          
           1
     8.561462    0.000000    0.000000
     0.000000    5.991038    0.000000
     0.000000    0.000000    5.733603
   P    S    Li
   2   8   6
Direct configuration=    12
  -0.00000000  0.83014614  0.42691911
   0.50000000  0.16985386  0.92691911
   0.19544173  0.65763246  0.32103466
   0.30455827  0.34236754  0.82103466
   0.69544173  0.34236754  0.82103466
   0.80455827  0.65763246  0.32103466
  -0.00000000  0.12260066  0.25523796
   0.50000000  0.87739934  0.75523796
  -0.00000000 -0.09561878  0.77816116
   0.50000000  0.09561878  0.27816116
  -0.00000000  0.48506469  0.10934433
   0.50000000  0.51493531  0.60934433
   0.75352709  0.74682342  0.85059774
   0.74647291  0.25317658  0.35059774
   0.25352709  0.25317658  0.35059774
   0.24647291  0.74682342  0.85059774
unknown system                          
           1
     8.290572    0.000000    0.000000
     0.000000    6.057258    0.000000
     0.000000    0.000000    5.606441
   P    S    Li
   2   8   6
Direct configuration=    13
  -0.00000000  0.82116237  0.42634908
   0.50000000  0.17883763  0.92634908
   0.20196024  0.65730222  0.31716199
   0.29803976  0.34269778  0.81716199
   0.70196024  0.34269778  0.81716199
   0.79803976  0.65730222  0.31716199
  -0.00000000  0.12260390  0.25443340
   0.50000000  0.87739610  0.75443340
  -0.00000000 -0.11151861  0.78566624
   0.50000000  0.11151861  0.28566624
  -0.00000000  0.48525709  0.10429091
   0.50000000  0.51474291  0.60429091
   0.75045664  0.75077779  0.85393188
   0.74954336  0.24922221  0.35393188
   0.25045664  0.24922221  0.35393188
   0.24954336  0.75077779  0.85393188
unknown system                          
           1
     8.249166    0.000000    0.000000
     0.000000    6.088800    0.000000
     0.000000    0.000000    5.560437
   P    S    Li
   2   8   6
Direct configuration=    14
  -0.00000000  0.82096559  0.42881850
   0.50000000  0.17903441  0.92881850
   0.20566435  0.65863224  0.31484381
   0.29433565  0.34136776  0.81484381
   0.70566435  0.34136776  0.81484381
   0.79433565  0.65863224  0.31484381
  -0.00000000  0.11663934  0.25651676
   0.50000000  0.88336066  0.75651676
  -0.00000000 -0.11869195  0.78357938
   0.50000000  0.11869195  0.28357938
  -0.00000000  0.48439122  0.09793654
   0.50000000  0.51560878  0.59793654
   0.74854430  0.75043024  0.85819427
   0.75145570  0.24956976  0.35819427
   0.24854430  0.24956976  0.35819427
   0.25145570  0.75043024  0.85819427
unknown system                          
           1
     8.226489    0.000000    0.000000
     0.000000    6.106074    0.000000
     0.000000    0.000000    5.535242
   P    S    Li
   2   8   6
Direct configuration=    15
  -0.00000000  0.82085837  0.43018213
   0.50000000  0.17914163  0.93018213
   0.20770318  0.65935688  0.31356370
   0.29229682  0.34064312  0.81356370
   0.70770318  0.34064312  0.81356370
   0.79229682  0.65935688  0.31356370
  -0.00000000  0.11338962  0.25766720
   0.50000000  0.88661038  0.75766720
  -0.00000000 -0.12260025  0.78242701
   0.50000000  0.12260025  0.28242701
  -0.00000000  0.48391947  0.09442763
   0.50000000  0.51608053  0.59442763
   0.74749170  0.75024088  0.86054799
   0.75250830  0.24975912  0.36054799
   0.24749170  0.24975912  0.36054799
   0.25250830  0.75024088  0.86054799
unknown system                          
           1
     8.192639    0.000000    0.000000
     0.000000    6.134027    0.000000
     0.000000    0.000000    5.553349
   P    S    Li
   2   8   6
Direct configuration=    16
  -0.00000000  0.81888654  0.42840288
   0.50000000  0.18111346  0.92840288
   0.20937966  0.66086224  0.31181890
   0.29062034  0.33913776  0.81181890
   0.70937966  0.33913776  0.81181890
   0.79062034  0.66086224  0.31181890
  -0.00000000  0.10900101  0.25890106
   0.50000000  0.89099899  0.75890106
  -0.00000000 -0.12748398  0.78343716
   0.50000000  0.12748398  0.28343716
  -0.00000000  0.48290243  0.08834221
   0.50000000  0.51709757  0.58834221
   0.74586032  0.74883495  0.86510313
   0.75413968  0.25116505  0.36510313
   0.24586032  0.25116505  0.36510313
   0.25413968  0.74883495  0.86510313
unknown system                          
           1
     8.096367    0.000000    0.000000
     0.000000    6.213527    0.000000
     0.000000    0.000000    5.604848
   P    S    Li
   2   8   6
Direct configuration=    17
  -0.00000000  0.81330412  0.42335911
   0.50000000  0.18669588  0.92335911
   0.21416734  0.66512404  0.30687277
   0.28583266  0.33487596  0.80687277
   0.71416734  0.33487596  0.80687277
   0.78583266  0.66512404  0.30687277
  -0.00000000  0.09657649  0.26239876
   0.50000000  0.90342351  0.76239876
  -0.00000000 -0.14131020  0.78630068
   0.50000000  0.14131020  0.28630068
  -0.00000000  0.48002311  0.07109148
   0.50000000  0.51997689  0.57109148
   0.74120145  0.74485465  0.87801589
   0.75879855  0.25514535  0.37801589
   0.24120145  0.25514535  0.37801589
   0.25879855  0.74485465  0.87801589
unknown system                          
           1
     8.027513    0.000000    0.000000
     0.000000    6.257272    0.000000
     0.000000    0.000000    5.638845
   P    S    Li
   2   8   6
Direct configuration=    18
  -0.00000000  0.80856200  0.42448583
   0.50000000  0.19143800  0.92448583
   0.21493174  0.66525363  0.30508155
   0.28506826  0.33474637  0.80508155
   0.71493174  0.33474637  0.80508155
   0.78506826  0.66525363  0.30508155
  -0.00000000  0.09545334  0.26164687
   0.50000000  0.90454666  0.76164687
  -0.00000000 -0.14792264  0.78466563
   0.50000000  0.14792264  0.28466563
  -0.00000000  0.47880429  0.06315532
   0.50000000  0.52119571  0.56315532
   0.73921332  0.74226003  0.88440531
   0.76078668  0.25773997  0.38440531
   0.23921332  0.25773997  0.38440531
   0.26078668  0.74226003  0.88440531
unknown system                          
           1
     7.938064    0.000000    0.000000
     0.000000    6.314101    0.000000
     0.000000    0.000000    5.683010
   P    S    Li
   2   8   6
Direct configuration=    19
  -0.00000000  0.80244460  0.42594072
   0.50000000  0.19755540  0.92594072
   0.21593329  0.66542081  0.30276860
   0.28406671  0.33457919  0.80276860
   0.71593329  0.33457919  0.80276860
   0.78406671  0.66542081  0.30276860
  -0.00000000  0.09400445  0.26067599
   0.50000000  0.90599555  0.76067599
  -0.00000000 -0.15645278  0.78255434
   0.50000000  0.15645278  0.28255434
  -0.00000000  0.47723201  0.05290763
   0.50000000  0.52276799  0.55290763
   0.73660838  0.73891294  0.89265574
   0.76339162  0.26108706  0.39265574
   0.23660838  0.26108706  0.39265574
   0.26339162  0.73891294  0.89265574
unknown system                          
           1
     7.864029    0.000000    0.000000
     0.000000    6.305912    0.000000
     0.000000    0.000000    5.715301
   P    S    Li
   2   8   6
Direct configuration=    20
  -0.00000000  0.80294490  0.42692957
   0.50000000  0.19705510  0.92692957
   0.21621157  0.66208243  0.30175133
   0.28378843  0.33791757  0.80175133
   0.71621157  0.33791757  0.80175133
   0.78378843  0.66208243  0.30175133
  -0.00000000  0.09190615  0.26091337
   0.50000000  0.90809385  0.76091337
  -0.00000000 -0.16346676  0.77818675
   0.50000000  0.16346676  0.27818675
  -0.00000000  0.47585355  0.04517109
   0.50000000  0.52414645  0.54517109
   0.73447853  0.73586978  0.89911196
   0.76552147  0.26413022  0.39911196
   0.23447853  0.26413022  0.39911196
   0.26552147  0.73586978  0.89911196
unknown system                          
           1
     7.665619    0.000000    0.000000
     0.000000    6.283965    0.000000
     0.000000    0.000000    5.801839
   P    S    Li
   2   8   6
Direct configuration=    21
   0.00000000  0.80428739  0.42956468
   0.50000000  0.19571261  0.92956468
   0.21696436  0.65312411  0.29904050
   0.28303564  0.34687589  0.79904050
   0.71696436  0.34687589  0.79904050
   0.78303564  0.65312411  0.29904050
   0.00000000  0.08627552  0.26154594
   0.50000000  0.91372448  0.76154594
   0.00000000 -0.18228825  0.76654798
   0.50000000  0.18228825  0.26654798
   0.00000000  0.47215455  0.02455471
   0.50000000  0.52784545  0.52455471
   0.72871692  0.72770370  0.91631653
   0.77128308  0.27229630  0.41631653
   0.22871692  0.27229630  0.41631653
   0.27128308  0.72770370  0.91631653
unknown system                          
           1
     7.611723    0.000000    0.000000
     0.000000    6.276569    0.000000
     0.000000    0.000000    5.856527
   P    S    Li
   2   8   6
Direct configuration=    22
   0.00000000  0.80434808  0.42676136
   0.50000000  0.19565192  0.92676136
   0.21714443  0.64930136  0.29887145
   0.28285557  0.35069864  0.79887145
   0.71714443  0.35069864  0.79887145
   0.78285557  0.64930136  0.29887145
   0.00000000  0.08511686  0.26191002
   0.50000000  0.91488314  0.76191002
   0.00000000 -0.18752272  0.76576603
   0.50000000  0.18752272  0.26576603
   0.00000000  0.47061743  0.01861610
   0.50000000  0.52938257  0.51861610
   0.72676979  0.72534755  0.92106548
   0.77323021  0.27465245  0.42106548
   0.22676979  0.27465245  0.42106548
   0.27323021  0.72534755  0.92106548
unknown system                          
           1
     7.564967    0.000000    0.000000
     0.000000    6.270153    0.000000
     0.000000    0.000000    5.903971
   P    S    Li
   2   8   6
Direct configuration=    23
   0.00000000  0.80440079  0.42435212
   0.50000000  0.19559921  0.92435212
   0.21730174  0.64598111  0.29872616
   0.28269826  0.35401889  0.79872616
   0.71730174  0.35401889  0.79872616
   0.78269826  0.64598111  0.29872616
   0.00000000  0.08411050  0.26222291
   0.50000000  0.91588950  0.76222291
   0.00000000 -0.19206912  0.76509400
   0.50000000  0.19206912  0.26509400
   0.00000000  0.46928237  0.01351229
   0.50000000  0.53071763  0.51351229
   0.72506863  0.72330111  0.92514686
   0.77493137  0.27669889  0.42514686
   0.22506863  0.27669889  0.42514686
   0.27493137  0.72330111  0.92514686
unknown system                          
           1
     7.576153    0.000000    0.000000
     0.000000    6.280234    0.000000
     0.000000    0.000000    5.905606
   P    S    Li
   2   8   6
Direct configuration=    24
   0.00000000  0.80292339  0.42360944
   0.50000000  0.19707661  0.92360944
   0.21730408  0.64512765  0.29934965
   0.28269592  0.35487235  0.79934965
   0.71730408  0.35487235  0.79934965
   0.78269592  0.64512765  0.29934965
   0.00000000  0.08530393  0.26223362
   0.50000000  0.91469607  0.76223362
   0.00000000 -0.19125442  0.76540361
   0.50000000  0.19125442  0.26540361
   0.00000000  0.46873618  0.01391884
   0.50000000  0.53126382  0.51391884
   0.72497545  0.72373501  0.92453128
   0.77502455  0.27626499  0.42453128
   0.22497545  0.27626499  0.42453128
   0.27502455  0.72373501  0.92453128
unknown system                          
           1
     7.598780    0.000000    0.000000
     0.000000    6.300624    0.000000
     0.000000    0.000000    5.908913
   P    S    Li
   2   8   6
Direct configuration=    25
   0.00000000  0.79993978  0.42210760
   0.50000000  0.20006022  0.92210760
   0.21730881  0.64340408  0.30061047
   0.28269119  0.35659592  0.80061047
   0.71730881  0.35659592  0.80061047
   0.78269119  0.64340408  0.30061047
   0.00000000  0.08771406  0.26225527
   0.50000000  0.91228594  0.76225527
   0.00000000 -0.18960914  0.76602971
   0.50000000  0.18960914  0.26602971
   0.00000000  0.46763317  0.01474095
   0.50000000  0.53236683  0.51474095
   0.72478725  0.72461128  0.92328645
   0.77521275  0.27538872  0.42328645
   0.22478725  0.27538872  0.42328645
   0.27521275  0.72461128  0.92328645
unknown system                          
           1
     7.612571    0.000000    0.000000
     0.000000    6.291624    0.000000
     0.000000    0.000000    5.897552
   P    S    Li
   2   8   6
Direct configuration=    26
   0.00000000  0.79953197  0.42113621
   0.50000000  0.20046803  0.92113621
   0.21715966  0.64173598  0.30133045
   0.28284034  0.35826402  0.80133045
   0.71715966  0.35826402  0.80133045
   0.78284034  0.64173598  0.30133045
   0.00000000  0.08722449  0.26321086
   0.50000000  0.91277551  0.76321086
   0.00000000 -0.18855537  0.76548878
   0.50000000  0.18855537  0.26548878
   0.00000000  0.46653541  0.01525884
   0.50000000  0.53346459  0.51525884
   0.72469401  0.72537745  0.92258589
   0.77530599  0.27462255  0.42258589
   0.22469401  0.27462255  0.42258589
   0.27530599  0.72537745  0.92258589
unknown system                          
           1
     7.649167    0.000000    0.000000
     0.000000    6.267744    0.000000
     0.000000    0.000000    5.867404
   P    S    Li
   2   8   6
Direct configuration=    27
   0.00000000  0.79844828  0.41855366
   0.50000000  0.20155172  0.91855366
   0.21676460  0.63730334  0.30324460
   0.28323540  0.36269666  0.80324460
   0.71676460  0.36269666  0.80324460
   0.78323540  0.63730334  0.30324460
   0.00000000  0.08592356  0.26575141
   0.50000000  0.91407644  0.76575141
   0.00000000 -0.18575518  0.76405067
   0.50000000  0.18575518  0.26405067
   0.00000000  0.46361835  0.01663569
   0.50000000  0.53638165  0.51663569
   0.72444703  0.72741337  0.92072336
   0.77555297  0.27258663  0.42072336
   0.22444703  0.27258663  0.42072336
   0.27555297  0.72741337  0.92072336
unknown system                          
           1
     7.656381    0.000000    0.000000
     0.000000    6.261973    0.000000
     0.000000    0.000000    5.866025
   P    S    Li
   2   8   6
Direct configuration=    28
   0.00000000  0.79654482  0.41916708
   0.50000000  0.20345518  0.91916708
   0.21592064  0.63546517  0.30301565
   0.28407936  0.36453483  0.80301565
   0.71592064  0.36453483  0.80301565
   0.78407936  0.63546517  0.30301565
   0.00000000  0.08513111  0.26567993
   0.50000000  0.91486889  0.76567993
   0.00000000 -0.18460115  0.76375400
   0.50000000  0.18460115  0.26375400
   0.00000000  0.46191680  0.01720069
   0.50000000  0.53808320  0.51720069
   0.72490278  0.72875865  0.92054717
   0.77509722  0.27124135  0.42054717
   0.22490278  0.27124135  0.42054717
   0.27509722  0.72875865  0.92054717
unknown system                          
           1
     7.678021    0.000000    0.000000
     0.000000    6.244660    0.000000
     0.000000    0.000000    5.861887
   P    S    Li
   2   8   6
Direct configuration=    29
   0.00000000  0.79082917  0.42100778
   0.50000000  0.20917083  0.92100778
   0.21339115  0.62994557  0.30232865
   0.28660885  0.37005443  0.80232865
   0.71339115  0.37005443  0.80232865
   0.78660885  0.62994557  0.30232865
   0.00000000  0.08275156  0.26546546
   0.50000000  0.91724844  0.76546546
   0.00000000 -0.18113586  0.76286377
   0.50000000  0.18113586  0.26286377
   0.00000000  0.45680745  0.01889610
   0.50000000  0.54319255  0.51889610
   0.72626875  0.73279822  0.92001848
   0.77373125  0.26720178  0.42001848
   0.22626875  0.26720178  0.42001848
   0.27373125  0.73279822  0.92001848
unknown system                          
           1
     7.691094    0.000000    0.000000
     0.000000    6.238994    0.000000
     0.000000    0.000000    5.873575
   P    S    Li
   2   8   6
Direct configuration=    30
   0.00000000  0.79021007  0.42092958
   0.50000000  0.20978993  0.92092958
   0.21289471  0.62833110  0.30153800
   0.28710529  0.37166890  0.80153800
   0.71289471  0.37166890  0.80153800
   0.78710529  0.62833110  0.30153800
   0.00000000  0.08102315  0.26529081
   0.50000000  0.91897685  0.76529081
   0.00000000 -0.18037468  0.76362355
   0.50000000  0.18037468  0.26362355
   0.00000000  0.45509610  0.01923006
   0.50000000  0.54490390  0.51923006
   0.72688075  0.73436785  0.92038868
   0.77311925  0.26563215  0.42038868
   0.22688075  0.26563215  0.42038868
   0.27311925  0.73436785  0.92038868
unknown system                          
           1
     7.718957    0.000000    0.000000
     0.000000    6.226916    0.000000
     0.000000    0.000000    5.898488
   P    S    Li
   2   8   6
Direct configuration=    31
   0.00000000  0.78888940  0.42076324
   0.50000000  0.21111060  0.92076324
   0.21183846  0.62488712  0.29985628
   0.28816154  0.37511288  0.79985628
   0.71183846  0.37511288  0.79985628
   0.78816154  0.62488712  0.29985628
   0.00000000  0.07733611  0.26491932
   0.50000000  0.92266389  0.76491932
   0.00000000 -0.17875092  0.76523960
   0.50000000  0.17875092  0.26523960
   0.00000000  0.45144545  0.01994042
   0.50000000  0.54855455  0.51994042
   0.72818286  0.73771619  0.92117611
   0.77181714  0.26228381  0.42117611
   0.22818286  0.26228381  0.42117611
   0.27181714  0.73771619  0.92117611
unknown system                          
           1
     7.724095    0.000000    0.000000
     0.000000    6.226493    0.000000
     0.000000    0.000000    5.897894
   P    S    Li
   2   8   6
Direct configuration=    32
   0.00000000  0.78754721  0.42161268
   0.50000000  0.21245279  0.92161268
   0.21121779  0.62326367  0.29888351
   0.28878221  0.37673633  0.79888351
   0.71121779  0.37673633  0.79888351
   0.78878221  0.62326367  0.29888351
   0.00000000  0.07560022  0.26427472
   0.50000000  0.92439978  0.76427472
   0.00000000 -0.17842343  0.76467853
   0.50000000  0.17842343  0.26467853
   0.00000000  0.44919603  0.01994015
   0.50000000  0.55080397  0.51994015
   0.72902011  0.74018985  0.92232713
   0.77097989  0.25981015  0.42232713
   0.22902011  0.25981015  0.42232713
   0.27097989  0.74018985  0.92232713
unknown system                          
           1
     7.734784    0.000000    0.000000
     0.000000    6.225613    0.000000
     0.000000    0.000000    5.896659
   P    S    Li
   2   8   6
Direct configuration=    33
   0.00000000  0.78475446  0.42338019
   0.50000000  0.21524554  0.92338019
   0.20992728  0.61988571  0.29685935
   0.29007272  0.38011429  0.79685935
   0.70992728  0.38011429  0.79685935
   0.79007272  0.61988571  0.29685935
   0.00000000  0.07198827  0.26293343
   0.50000000  0.92801173  0.76293343
   0.00000000 -0.17774200  0.76351106
   0.50000000  0.17774200  0.26351106
   0.00000000  0.44451556  0.01993958
   0.50000000  0.55548444  0.51993958
   0.73076092  0.74533690  0.92472219
   0.76923908  0.25466310  0.42472219
   0.23076092  0.25466310  0.42472219
   0.26923908  0.74533690  0.92472219
unknown system                          
           1
     7.720677    0.000000    0.000000
     0.000000    6.226457    0.000000
     0.000000    0.000000    5.893799
   P    S    Li
   2   8   6
Direct configuration=    34
   0.00000000  0.78221974  0.42167092
   0.50000000  0.21778026  0.92167092
   0.20931025  0.61823963  0.29684762
   0.29068975  0.38176037  0.79684762
   0.70931025  0.38176037  0.79684762
   0.79068975  0.61823963  0.29684762
   0.00000000  0.07090036  0.26220807
   0.50000000  0.92909964  0.76220807
   0.00000000 -0.17802402  0.76272514
   0.50000000  0.17802402  0.26272514
   0.00000000  0.44180939  0.01929550
   0.50000000  0.55819061  0.51929550
   0.73134801  0.74871201  0.92666625
   0.76865199  0.25128799  0.42666625
   0.23134801  0.25128799  0.42666625
   0.26865199  0.74871201  0.92666625
unknown system                          
           1
     7.703251    0.000000    0.000000
     0.000000    6.227500    0.000000
     0.000000    0.000000    5.890266
   P    S    Li
   2   8   6
Direct configuration=    35
   0.00000000  0.77908891  0.41955836
   0.50000000  0.22091109  0.91955836
   0.20854662  0.61620642  0.29683311
   0.29145338  0.38379358  0.79683311
   0.70854662  0.38379358  0.79683311
   0.79145338  0.61620642  0.29683311
   0.00000000  0.06955660  0.26131156
   0.50000000  0.93044340  0.76131156
   0.00000000 -0.17837237  0.76175380
   0.50000000  0.17837237  0.26175380
   0.00000000  0.43846680  0.01849944
   0.50000000  0.56153320  0.51849944
   0.73207458  0.75288086  0.92906899
   0.76792542  0.24711914  0.42906899
   0.23207458  0.24711914  0.42906899
   0.26792542  0.75288086  0.92906899
unknown system                          
           1
     7.708092    0.000000    0.000000
     0.000000    6.227210    0.000000
     0.000000    0.000000    5.891248
   P    S    Li
   2   8   6
Direct configuration=    36
   0.00000000  0.77995843  0.42014552
   0.50000000  0.22004157  0.92014552
   0.20875921  0.61677110  0.29683714
   0.29124079  0.38322890  0.79683714
   0.70875921  0.38322890  0.79683714
   0.79124079  0.61677110  0.29683714
   0.00000000  0.06992980  0.26156074
   0.50000000  0.93007020  0.76156074
   0.00000000 -0.17827563  0.76202377
   0.50000000  0.17827563  0.26202377
   0.00000000  0.43939513  0.01872070
   0.50000000  0.56060487  0.51872070
   0.73187230  0.75172306  0.92840118
   0.76812770  0.24827694  0.42840118
   0.23187230  0.24827694  0.42840118
   0.26812770  0.75172306  0.92840118