  16  16   0   0
  0.1798564E+02  0.7667166E-09  0.6222204E-09  0.6032077E-09  0.5000000E-15
  1.000000000000000E-004
  CAR 
 unknown system                          
     11.26980363    -43.41252853  301      2.38392465      1.00000000
    -43.413  0.0000E+00  0.0000E+00
    -43.230  0.0000E+00  0.0000E+00
    -43.048  0.0000E+00  0.0000E+00
    -42.866  0.0000E+00  0.0000E+00
    -42.683  0.0000E+00  0.0000E+00
    -42.501  0.0000E+00  0.0000E+00
    -42.319  0.0000E+00  0.0000E+00
    -42.137  0.0000E+00  0.0000E+00
    -41.954  0.0000E+00  0.0000E+00
    -41.772  0.0000E+00  0.0000E+00
    -41.590  0.0000E+00  0.0000E+00
    -41.408  0.0000E+00  0.0000E+00
    -41.225  0.0000E+00  0.0000E+00
    -41.043  0.0000E+00  0.0000E+00
    -40.861  0.0000E+00  0.4000E+01
    -40.678  0.0000E+00  0.1200E+02
    -40.496  0.0000E+00  0.1200E+02
    -40.314  0.0000E+00  0.1200E+02
    -40.132  0.0000E+00  0.1200E+02
    -39.949  0.0000E+00  0.1200E+02
    -39.767  0.0000E+00  0.1200E+02
    -39.585  0.0000E+00  0.1200E+02
    -39.402  0.0000E+00  0.1200E+02
    -39.220  0.0000E+00  0.1200E+02
    -39.038  0.0000E+00  0.1200E+02
    -38.856  0.0000E+00  0.1200E+02
    -38.673  0.0000E+00  0.1200E+02
    -38.491  0.0000E+00  0.1200E+02
    -38.309  0.0000E+00  0.1200E+02
    -38.127  0.0000E+00  0.1200E+02
    -37.944  0.0000E+00  0.1200E+02
    -37.762  0.0000E+00  0.1200E+02
    -37.580  0.0000E+00  0.1200E+02
    -37.397  0.0000E+00  0.1200E+02
    -37.215  0.0000E+00  0.1200E+02
    -37.033  0.0000E+00  0.1200E+02
    -36.851  0.0000E+00  0.1200E+02
    -36.668  0.0000E+00  0.1200E+02
    -36.486  0.0000E+00  0.1200E+02
    -36.304  0.0000E+00  0.1200E+02
    -36.122  0.0000E+00  0.1200E+02
    -35.939  0.0000E+00  0.1200E+02
    -35.757  0.0000E+00  0.1200E+02
    -35.575  0.0000E+00  0.1200E+02
    -35.392  0.0000E+00  0.1200E+02
    -35.210  0.0000E+00  0.1200E+02
    -35.028  0.0000E+00  0.1200E+02
    -34.846  0.0000E+00  0.1200E+02
    -34.663  0.0000E+00  0.1200E+02
    -34.481  0.0000E+00  0.1200E+02
    -34.299  0.0000E+00  0.1200E+02
    -34.117  0.0000E+00  0.1200E+02
    -33.934  0.0000E+00  0.1200E+02
    -33.752  0.0000E+00  0.1200E+02
    -33.570  0.0000E+00  0.1200E+02
    -33.387  0.0000E+00  0.1200E+02
    -33.205  0.0000E+00  0.1200E+02
    -33.023  0.0000E+00  0.1200E+02
    -32.841  0.0000E+00  0.1200E+02
    -32.658  0.0000E+00  0.1200E+02
    -32.476  0.0000E+00  0.1200E+02
    -32.294  0.0000E+00  0.1200E+02
    -32.112  0.0000E+00  0.1200E+02
    -31.929  0.0000E+00  0.1200E+02
    -31.747  0.0000E+00  0.1200E+02
    -31.565  0.0000E+00  0.1200E+02
    -31.382  0.0000E+00  0.1200E+02
    -31.200  0.0000E+00  0.1200E+02
    -31.018  0.0000E+00  0.1200E+02
    -30.836  0.0000E+00  0.1200E+02
    -30.653  0.0000E+00  0.1200E+02
    -30.471  0.0000E+00  0.1200E+02
    -30.289  0.0000E+00  0.1200E+02
    -30.106  0.0000E+00  0.1200E+02
    -29.924  0.0000E+00  0.1200E+02
    -29.742  0.0000E+00  0.1200E+02
    -29.560  0.0000E+00  0.1200E+02
    -29.377  0.0000E+00  0.1200E+02
    -29.195  0.0000E+00  0.1200E+02
    -29.013  0.0000E+00  0.1200E+02
    -28.831  0.0000E+00  0.1200E+02
    -28.648  0.0000E+00  0.1200E+02
    -28.466  0.0000E+00  0.1200E+02
    -28.284  0.0000E+00  0.1200E+02
    -28.101  0.0000E+00  0.1200E+02
    -27.919  0.0000E+00  0.1200E+02
    -27.737  0.0000E+00  0.1200E+02
    -27.555  0.0000E+00  0.1200E+02
    -27.372  0.0000E+00  0.1200E+02
    -27.190  0.0000E+00  0.1200E+02
    -27.008  0.0000E+00  0.1200E+02
    -26.826  0.0000E+00  0.1200E+02
    -26.643  0.0000E+00  0.1200E+02
    -26.461  0.0000E+00  0.1200E+02
    -26.279  0.0000E+00  0.1200E+02
    -26.096  0.0000E+00  0.1200E+02
    -25.914  0.0000E+00  0.1200E+02
    -25.732  0.0000E+00  0.1200E+02
    -25.550  0.0000E+00  0.1200E+02
    -25.367  0.0000E+00  0.1200E+02
    -25.185  0.0000E+00  0.1200E+02
    -25.003  0.0000E+00  0.1200E+02
    -24.821  0.0000E+00  0.1200E+02
    -24.638  0.0000E+00  0.1200E+02
    -24.456  0.0000E+00  0.1200E+02
    -24.274  0.0000E+00  0.1200E+02
    -24.091  0.0000E+00  0.1200E+02
    -23.909  0.0000E+00  0.1200E+02
    -23.727  0.0000E+00  0.1200E+02
    -23.545  0.0000E+00  0.1200E+02
    -23.362  0.0000E+00  0.1200E+02
    -23.180  0.0000E+00  0.1200E+02
    -22.998  0.0000E+00  0.1200E+02
    -22.816  0.0000E+00  0.1200E+02
    -22.633  0.0000E+00  0.1200E+02
    -22.451  0.0000E+00  0.1200E+02
    -22.269  0.0000E+00  0.1200E+02
    -22.086  0.0000E+00  0.1200E+02
    -21.904  0.0000E+00  0.1200E+02
    -21.722  0.0000E+00  0.1200E+02
    -21.540  0.0000E+00  0.1200E+02
    -21.357  0.0000E+00  0.1200E+02
    -21.175  0.0000E+00  0.1200E+02
    -20.993  0.0000E+00  0.1200E+02
    -20.810  0.0000E+00  0.1200E+02
    -20.628  0.0000E+00  0.1200E+02
    -20.446  0.0000E+00  0.1200E+02
    -20.264  0.0000E+00  0.1200E+02
    -20.081  0.0000E+00  0.1200E+02
    -19.899  0.0000E+00  0.1200E+02
    -19.717  0.0000E+00  0.1200E+02
    -19.535  0.0000E+00  0.1200E+02
    -19.352  0.0000E+00  0.1200E+02
    -19.170  0.0000E+00  0.1200E+02
    -18.988  0.0000E+00  0.1200E+02
    -18.805  0.0000E+00  0.1200E+02
    -18.623  0.0000E+00  0.1200E+02
    -18.441  0.0000E+00  0.1200E+02
    -18.259  0.0000E+00  0.1200E+02
    -18.076  0.0000E+00  0.1200E+02
    -17.894  0.0000E+00  0.1200E+02
    -17.712  0.0000E+00  0.1200E+02
    -17.530  0.0000E+00  0.1200E+02
    -17.347  0.0000E+00  0.1200E+02
    -17.165  0.0000E+00  0.1200E+02
    -16.983  0.0000E+00  0.1200E+02
    -16.800  0.0000E+00  0.1200E+02
    -16.618  0.0000E+00  0.1200E+02
    -16.436  0.0000E+00  0.1200E+02
    -16.254  0.0000E+00  0.1200E+02
    -16.071  0.0000E+00  0.1200E+02
    -15.889  0.0000E+00  0.1200E+02
    -15.707  0.0000E+00  0.1200E+02
    -15.525  0.0000E+00  0.1200E+02
    -15.342  0.0000E+00  0.1200E+02
    -15.160  0.0000E+00  0.1200E+02
    -14.978  0.0000E+00  0.1200E+02
    -14.795  0.0000E+00  0.1200E+02
    -14.613  0.0000E+00  0.1200E+02
    -14.431  0.0000E+00  0.1200E+02
    -14.249  0.0000E+00  0.1200E+02
    -14.066  0.0000E+00  0.1200E+02
    -13.884  0.0000E+00  0.1200E+02
    -13.702  0.0000E+00  0.1200E+02
    -13.520  0.0000E+00  0.1200E+02
    -13.337  0.0000E+00  0.1200E+02
    -13.155  0.0000E+00  0.1200E+02
    -12.973  0.0000E+00  0.1200E+02
    -12.790  0.0000E+00  0.1200E+02
    -12.608  0.3383E+01  0.1204E+02
    -12.426  0.0000E+00  0.1600E+02
    -12.244  0.0000E+00  0.1600E+02
    -12.061  0.0000E+00  0.1600E+02
    -11.879  0.0000E+00  0.1600E+02
    -11.697  0.0000E+00  0.1600E+02
    -11.515  0.0000E+00  0.1600E+02
    -11.332  0.0000E+00  0.1600E+02
    -11.150  0.0000E+00  0.1600E+02
    -10.968  0.0000E+00  0.1600E+02
    -10.785  0.0000E+00  0.1600E+02
    -10.603  0.0000E+00  0.1600E+02
    -10.421  0.0000E+00  0.1600E+02
    -10.239  0.0000E+00  0.1600E+02
    -10.056  0.0000E+00  0.1600E+02
     -9.874  0.0000E+00  0.1600E+02
     -9.692  0.7207E+01  0.1602E+02
     -9.509  0.0000E+00  0.2000E+02
     -9.327  0.4517E+02  0.2597E+02
     -9.145  0.0000E+00  0.2800E+02
     -8.963  0.0000E+00  0.2800E+02
     -8.780  0.0000E+00  0.2800E+02
     -8.598  0.0000E+00  0.2800E+02
     -8.416  0.0000E+00  0.2800E+02
     -8.234  0.0000E+00  0.2800E+02
     -8.051  0.0000E+00  0.2800E+02
     -7.869  0.0000E+00  0.2800E+02
     -7.687  0.0000E+00  0.2800E+02
     -7.504  0.0000E+00  0.2800E+02
     -7.322  0.0000E+00  0.2800E+02
     -7.140  0.0000E+00  0.2800E+02
     -6.958  0.0000E+00  0.2800E+02
     -6.775  0.0000E+00  0.2800E+02
     -6.593  0.0000E+00  0.2800E+02
     -6.411  0.0000E+00  0.2800E+02
     -6.229  0.0000E+00  0.2800E+02
     -6.046  0.0000E+00  0.2800E+02
     -5.864  0.0000E+00  0.2800E+02
     -5.682  0.0000E+00  0.2800E+02
     -5.499  0.9887E+00  0.2805E+02
     -5.317  0.8911E+01  0.2890E+02
     -5.135  0.2302E+02  0.3061E+02
     -4.953  0.0000E+00  0.3200E+02
     -4.770  0.0000E+00  0.3200E+02
     -4.588  0.0000E+00  0.3200E+02
     -4.406  0.0000E+00  0.3200E+02
     -4.224  0.0000E+00  0.3200E+02
     -4.041  0.0000E+00  0.3200E+02
     -3.859  0.0000E+00  0.3200E+02
     -3.677  0.0000E+00  0.3200E+02
     -3.494  0.0000E+00  0.3200E+02
     -3.312  0.0000E+00  0.3200E+02
     -3.130  0.0000E+00  0.3200E+02
     -2.948  0.0000E+00  0.3200E+02
     -2.765  0.0000E+00  0.3200E+02
     -2.583  0.7895E+01  0.3230E+02
     -2.401  0.1629E+02  0.3498E+02
     -2.219  0.2508E+02  0.3872E+02
     -2.036  0.2834E+02  0.4254E+02
     -1.854  0.0000E+00  0.4400E+02
     -1.672  0.0000E+00  0.4400E+02
     -1.489  0.0000E+00  0.4400E+02
     -1.307  0.0000E+00  0.4400E+02
     -1.125  0.0000E+00  0.4400E+02
     -0.943  0.0000E+00  0.4400E+02
     -0.760  0.0000E+00  0.4400E+02
     -0.578  0.0000E+00  0.4400E+02
     -0.396  0.0000E+00  0.4400E+02
     -0.213  0.1425E+02  0.4485E+02
     -0.031  0.1376E+02  0.4765E+02
      0.151  0.1087E+02  0.5102E+02
      0.333  0.3964E+01  0.5214E+02
      0.516  0.1042E+02  0.5385E+02
      0.698  0.2744E+01  0.5588E+02
      0.880  0.1242E+02  0.5685E+02
      1.062  0.5447E+01  0.5964E+02
      1.245  0.1790E+02  0.6198E+02
      1.427  0.2765E+01  0.6397E+02
      1.609  0.2178E+02  0.6609E+02
      1.792  0.4555E+02  0.6800E+02
      1.974  0.1357E+02  0.7186E+02
      2.156  0.1086E+02  0.7460E+02
      2.338  0.2334E+00  0.7600E+02
      2.521  0.0000E+00  0.7600E+02
      2.703  0.0000E+00  0.7600E+02
      2.885  0.0000E+00  0.7600E+02
      3.067  0.0000E+00  0.7600E+02
      3.250  0.0000E+00  0.7600E+02
      3.432  0.0000E+00  0.7600E+02
      3.614  0.0000E+00  0.7600E+02
      3.797  0.0000E+00  0.7600E+02
      3.979  0.0000E+00  0.7600E+02
      4.161  0.0000E+00  0.7600E+02
      4.343  0.0000E+00  0.7600E+02
      4.526  0.0000E+00  0.7600E+02
      4.708  0.0000E+00  0.7600E+02
      4.890  0.0000E+00  0.7600E+02
      5.072  0.2445E+01  0.7617E+02
      5.255  0.2951E+01  0.7667E+02
      5.437  0.5008E+01  0.7767E+02
      5.619  0.4301E+01  0.7852E+02
      5.802  0.3137E+01  0.7941E+02
      5.984  0.1817E+01  0.7987E+02
      6.166  0.1471E+01  0.8011E+02
      6.348  0.9726E+01  0.8089E+02
      6.531  0.1086E+02  0.8361E+02
      6.713  0.7391E+01  0.8435E+02
      6.895  0.1478E+02  0.8661E+02
      7.077  0.1150E+02  0.8928E+02
      7.260  0.6760E+01  0.9074E+02
      7.442  0.0000E+00  0.9200E+02
      7.624  0.0000E+00  0.9200E+02
      7.807  0.0000E+00  0.9200E+02
      7.989  0.1207E+00  0.9200E+02
      8.171  0.6711E+01  0.9357E+02
      8.353  0.9680E-01  0.9400E+02
      8.536  0.4522E+01  0.9411E+02
      8.718  0.4748E+01  0.9584E+02
      8.900  0.0000E+00  0.9600E+02
      9.083  0.0000E+00  0.9600E+02
      9.265  0.0000E+00  0.9600E+02
      9.447  0.0000E+00  0.9600E+02
      9.629  0.0000E+00  0.9600E+02
      9.812  0.0000E+00  0.9600E+02
      9.994  0.0000E+00  0.9600E+02
     10.176  0.0000E+00  0.9600E+02
     10.358  0.0000E+00  0.9600E+02
     10.541  0.0000E+00  0.9600E+02
     10.723  0.0000E+00  0.9600E+02
     10.905  0.0000E+00  0.9600E+02
     11.088  0.0000E+00  0.9600E+02
     11.270  0.0000E+00  0.9600E+02
