       N       E                     dE             d eps       ncg     rms          rms(c)
DAV:   1     0.504775214441E+03    0.50478E+03   -0.28573E+04   768   0.131E+03
DAV:   2    -0.810959703269E+01   -0.51288E+03   -0.48813E+03   904   0.308E+02
DAV:   3    -0.717733827204E+02   -0.63664E+02   -0.63073E+02  1072   0.979E+01
DAV:   4    -0.790162937789E+02   -0.72429E+01   -0.72190E+01  1424   0.315E+01
DAV:   5    -0.798520751592E+02   -0.83578E+00   -0.83562E+00  1104   0.739E+00    0.219E+01
RMM:   6    -0.774756849488E+02    0.23764E+01   -0.71641E+00   887   0.617E+00    0.148E+01
RMM:   7    -0.770505736827E+02    0.42511E+00   -0.21134E+00   982   0.379E+00    0.505E+00
RMM:   8    -0.769848661808E+02    0.65708E-01   -0.24523E-01  1026   0.147E+00    0.496E-01
RMM:   9    -0.769791477005E+02    0.57185E-02   -0.27472E-02  1141   0.493E-01    0.279E-01
RMM:  10    -0.769797483691E+02   -0.60067E-03   -0.75500E-03  1223   0.205E-01    0.126E-01
RMM:  11    -0.769799204928E+02   -0.17212E-03   -0.19809E-03  1208   0.105E-01    0.217E-02
RMM:  12    -0.769799821403E+02   -0.61648E-04   -0.77109E-04  1082   0.620E-02    0.117E-02
RMM:  13    -0.769799948980E+02   -0.12758E-04   -0.18537E-04   777   0.403E-02
   1 F= -.76979995E+02 E0= -.76979995E+02  d E =0.000000E+00
