 vasp.5.4.4.18Apr17-6-g9f103f2a35 (build Feb 28 2020 14:15:47) complex          
  
 executed on             LinuxIFC date 2022.08.06  21:53:08
 running on   64 total cores
 distrk:  each k-point on   64 cores,    1 groups
 distr:  one band on NCORES_PER_BAND=  16 cores,    4 groups


--------------------------------------------------------------------------------------------------------


 INCAR:
 POTCAR:    PAW P 26Mar2009                       
 POTCAR:    PAW S 27Mar2009                       
 POTCAR:    PAW Li_sv 10Sep2004                   
 POTCAR:    PAW P 26Mar2009                       
   VRHFIN =P : s2p3                                                             
   LEXCH  = CA                                                                  
   EATOM  =   176.5121 eV,   12.9733 Ry                                         
                                                                                
   TITEL  = PAW P 26Mar2009                                                     
   LULTRA =        F    use ultrasoft PP ?                                      
   IUNSCR =        1    unscreen: 0-lin 1-nonlin 2-no                           
   RPACOR =    1.500    partial core radius                                     
   POMASS =   30.974; ZVAL   =    5.000    mass and valenz                      
   RCORE  =    1.900    outmost cutoff radius                                   
   RWIGS  =    2.330; RWIGS  =    1.233    wigner-seitz radius (au A)           
   ENMAX  =  255.155; ENMIN  =  191.366 eV                                      
   ICORE  =        2    local potential                                         
   LCOR   =        T    correct aug charges                                     
   LPAW   =        T    paw PP                                                  
   EAUG   =  342.924                                                            
   DEXC   =    0.000                                                            
   RMAX   =    1.935    core radius for proj-oper                               
   RAUG   =    1.300    factor for augmentation sphere                          
   RDEP   =    1.931    radius for radial grids                                 
   RDEPT  =    1.780    core radius for aug-charge                              
                                                                                
   Atomic configuration                                                         
    6 entries                                                                   
     n  l   j            E        occ.                                          
     1  0  0.50     -2072.7761   2.0000                                         
     2  0  0.50      -172.9483   2.0000                                         
     2  1  1.50      -124.4644   6.0000                                         
     3  0  0.50       -14.0086   2.0000                                         
     3  1  0.50        -5.6037   3.0000                                         
     3  2  1.50        -6.8029   0.0000                                         
   Description                                                                  
     l       E           TYP  RCUT    TYP  RCUT                                 
     0    -14.0086211     23  1.900                                             
     0    -11.8189335     23  1.900                                             
     1     -5.6037292     23  1.900                                             
     1     -0.3527308     23  1.900                                             
     2     -6.8029130     23  1.900                                             
  local pseudopotential read in
  partial core-charges read in
  partial kinetic energy density read in
  atomic valenz-charges read in
  non local Contribution for L=           0  read in
    real space projection operators read in
  non local Contribution for L=           0  read in
    real space projection operators read in
  non local Contribution for L=           1  read in
    real space projection operators read in
  non local Contribution for L=           1  read in
    real space projection operators read in
    PAW grid and wavefunctions read in
 
   number of l-projection  operators is LMAX  =           4
   number of lm-projection operators is LMMAX =           8
 
 POTCAR:    PAW S 27Mar2009                       
   VRHFIN =S : s2p4                                                             
   LEXCH  = CA                                                                  
   EATOM  =   277.3745 eV,   20.3864 Ry                                         
                                                                                
   TITEL  = PAW S 27Mar2009                                                     
   LULTRA =        F    use ultrasoft PP ?                                      
   IUNSCR =        1    unscreen: 0-lin 1-nonlin 2-no                           
   RPACOR =    1.500    partial core radius                                     
   POMASS =   32.066; ZVAL   =    6.000    mass and valenz                      
   RCORE  =    1.900    outmost cutoff radius                                   
   RWIGS  =    2.200; RWIGS  =    1.164    wigner-seitz radius (au A)           
   ENMAX  =  258.602; ENMIN  =  193.952 eV                                      
   ICORE  =        2    local potential                                         
   LCOR   =        T    correct aug charges                                     
   LPAW   =        T    paw PP                                                  
   EAUG   =  335.092                                                            
   DEXC   =    0.000                                                            
   RMAX   =    1.942    core radius for proj-oper                               
   RAUG   =    1.300    factor for augmentation sphere                          
   RDEP   =    1.954    radius for radial grids                                 
   RDEPT  =    1.744    core radius for aug-charge                              
                                                                                
   Atomic configuration                                                         
    6 entries                                                                   
     n  l   j            E        occ.                                          
     1  0  0.50     -2393.1495   2.0000                                         
     2  0  0.50      -210.5411   2.0000                                         
     2  1  1.50      -156.4410   6.0000                                         
     3  0  0.50       -17.2664   2.0000                                         
     3  1  0.50        -7.1129   4.0000                                         
     3  2  1.50        -8.1635   0.0000                                         
   Description                                                                  
     l       E           TYP  RCUT    TYP  RCUT                                 
     0    -17.2664422     23  1.900                                             
     0    -15.8420823     23  1.900                                             
     1     -7.1129072     23  1.900                                             
     1     -2.8398274     23  1.900                                             
     2     -8.1634956     23  1.900                                             
  local pseudopotential read in
  partial core-charges read in
  partial kinetic energy density read in
  atomic valenz-charges read in
  non local Contribution for L=           0  read in
    real space projection operators read in
  non local Contribution for L=           0  read in
    real space projection operators read in
  non local Contribution for L=           1  read in
    real space projection operators read in
  non local Contribution for L=           1  read in
    real space projection operators read in
    PAW grid and wavefunctions read in
 
   number of l-projection  operators is LMAX  =           4
   number of lm-projection operators is LMMAX =           8
 
 POTCAR:    PAW Li_sv 10Sep2004                   
   VRHFIN =Li: 1s2s                                                             
   LEXCH  = CA                                                                  
   EATOM  =   199.5738 eV,   14.6683 Ry                                         
                                                                                
   TITEL  = PAW Li_sv 10Sep2004                                                 
   LULTRA =        F    use ultrasoft PP ?                                      
   IUNSCR =        0    unscreen: 0-lin 1-nonlin 2-no                           
   RPACOR =    0.000    partial core radius                                     
   POMASS =    7.010; ZVAL   =    3.000    mass and valenz                      
   RCORE  =    1.700    outmost cutoff radius                                   
   RWIGS  =    2.050; RWIGS  =    1.085    wigner-seitz radius (au A)           
   ENMAX  =  498.387; ENMIN  =  373.790 eV                                      
   ICORE  =        2    local potential                                         
   LCOR   =        T    correct aug charges                                     
   LPAW   =        T    paw PP                                                  
   EAUG   =  628.945                                                            
   RMAX   =    1.732    core radius for proj-oper                               
   RAUG   =    1.300    factor for augmentation sphere                          
   RDEP   =    1.728    radius for radial grids                                 
   RDEPT  =    1.329    core radius for aug-charge                              
                                                                                
   Atomic configuration                                                         
    4 entries                                                                   
     n  l   j            E        occ.                                          
     1  0  0.50       -51.0884   2.0000                                         
     2  0  0.50        -2.8766   1.0000                                         
     2  1  0.50        -2.8708   0.0000                                         
     3  2  1.50        -1.3606   0.0000                                         
   Description                                                                  
     l       E           TYP  RCUT    TYP  RCUT                                 
     0    -51.0884324     23  1.400                                             
     0     -2.8766458     23  1.700                                             
     1     -2.8708293     23  1.400                                             
     2     -1.3605826     23  1.400                                             
  local pseudopotential read in
  atomic valenz-charges read in
  non local Contribution for L=           0  read in
    real space projection operators read in
  non local Contribution for L=           0  read in
    real space projection operators read in
  non local Contribution for L=           1  read in
    real space projection operators read in
    PAW grid and wavefunctions read in
 
   number of l-projection  operators is LMAX  =           3
   number of lm-projection operators is LMMAX =           5
 
 Optimization of the real space projectors (new method)

 maximal supplied QI-value         = 19.84
 optimisation between [QCUT,QGAM] = [ 10.32, 20.83] = [ 29.81,121.55] Ry 
 Optimized for a Real-space Cutoff    1.39 Angstroem

   l    n(q)    QCUT    max X(q) W(low)/X(q) W(high)/X(q)  e(spline) 
   0      9    10.318   158.476    0.64E-04    0.80E-04    0.60E-07
   0      9    10.318   128.097    0.63E-04    0.79E-04    0.60E-07
   1      8    10.318    73.217    0.18E-03    0.19E-03    0.20E-06
   1      8    10.318    48.248    0.18E-03    0.19E-03    0.19E-06
 Optimization of the real space projectors (new method)

 maximal supplied QI-value         = 19.84
 optimisation between [QCUT,QGAM] = [ 10.32, 20.83] = [ 29.81,121.55] Ry 
 Optimized for a Real-space Cutoff    1.39 Angstroem

   l    n(q)    QCUT    max X(q) W(low)/X(q) W(high)/X(q)  e(spline) 
   0      9    10.318   180.455    0.73E-04    0.81E-04    0.62E-07
   0      9    10.318   157.733    0.72E-04    0.81E-04    0.62E-07
   1      8    10.318    66.201    0.18E-03    0.20E-03    0.20E-06
   1      8    10.318    49.617    0.18E-03    0.20E-03    0.20E-06
 Optimization of the real space projectors (new method)

 maximal supplied QI-value         = 22.11
 optimisation between [QCUT,QGAM] = [ 10.39, 20.78] = [ 30.24,120.96] Ry 
 Optimized for a Real-space Cutoff    1.20 Angstroem

   l    n(q)    QCUT    max X(q) W(low)/X(q) W(high)/X(q)  e(spline) 
   0      7    10.392    10.443    0.77E-04    0.41E-05    0.30E-07
   0      7    10.392     8.514    0.20E-03    0.36E-04    0.67E-07
   1      7    10.392     5.406    0.20E-03    0.20E-03    0.12E-06
  PAW P 26Mar2009                       :
 energy of atom  1       EATOM= -176.5121
 kinetic energy error for atom=    0.0021 (will be added to EATOM!!)
  PAW S 27Mar2009                       :
 energy of atom  2       EATOM= -277.3745
 kinetic energy error for atom=    0.0041 (will be added to EATOM!!)
  PAW Li_sv 10Sep2004                   :
 energy of atom  3       EATOM= -199.5738
 kinetic energy error for atom=    0.0564 (will be added to EATOM!!)
 
 
 POSCAR: Good luck                               
  positions in cartesian coordinates
  No initial velocities read in
 exchange correlation table for  LEXCH =        2
   RHO(1)=    0.500       N(1)  =     2000
   RHO(2)=  100.500       N(2)  =     4000
 


--------------------------------------------------------------------------------------------------------


 ion  position               nearest neighbor table
   1  0.000  0.331  0.298-   7 2.01   6 2.04   3 2.04   9 2.05
   2  0.500  0.669  0.798-   8 2.01   5 2.04   4 2.04  10 2.05
   3  0.218  0.166  0.208-   1 2.04  14 2.24  12 2.45  13 2.46
   4  0.282  0.834  0.708-   2 2.04  13 2.24  11 2.45  14 2.46
   5  0.718  0.834  0.708-   2 2.04  16 2.24  11 2.45  15 2.46
   6  0.782  0.166  0.208-   1 2.04  15 2.24  12 2.45  16 2.46
   7  0.000  0.627  0.164-   1 2.01  11 2.37  15 2.40  14 2.40
   8  0.500  0.373  0.664-   2 2.01  12 2.37  13 2.40  16 2.40
   9  0.000  0.335  0.638-   1 2.05  11 2.17  13 2.38  16 2.38
  10  0.500  0.665  0.138-   2 2.05  12 2.17  14 2.38  15 2.38
  11  0.000  0.659  0.772-   9 2.17   7 2.37   4 2.45   5 2.45
  12  0.500  0.341  0.272-  10 2.17   8 2.37   3 2.45   6 2.45
  13  0.252  0.180  0.802-   4 2.24   9 2.38   8 2.40   3 2.46
  14  0.248  0.820  0.302-   3 2.24  10 2.38   7 2.40   4 2.46
  15  0.752  0.820  0.302-   6 2.24  10 2.38   7 2.40   5 2.46
  16  0.748  0.180  0.802-   5 2.24   9 2.38   8 2.40   6 2.46
 
  LATTYP: Found a simple orthorhombic cell.
 ALAT       =     6.0320769347
 B/A-ratio  =     1.0315193043
 C/A-ratio  =     1.2710657222
  
  Lattice vectors:
  
 A1 = (   0.0000000000,   0.0000000000,  -6.0320769347)
 A2 = (   0.0000000000,  -6.2222038029,   0.0000000000)
 A3 = (  -7.6671662251,   0.0000000000,   0.0000000000)


Analysis of symmetry for initial positions (statically):
=====================================================================
 Subroutine PRICEL returns:
 Original cell was already a primitive cell.
 

 Routine SETGRP: Setting up the symmetry group for a 
 simple orthorhombic supercell.


 Subroutine GETGRP returns: Found  4 space group operations
 (whereof  2 operations were pure point group operations)
 out of a pool of  8 trial point group operations.


The static configuration has the point symmetry C_1h.
 The point group associated with its full space group is C_2v.


Analysis of symmetry for dynamics (positions and initial velocities):
=====================================================================
 Subroutine PRICEL returns:
 Original cell was already a primitive cell.
 

 Routine SETGRP: Setting up the symmetry group for a 
 simple orthorhombic supercell.


 Subroutine GETGRP returns: Found  4 space group operations
 (whereof  2 operations were pure point group operations)
 out of a pool of  8 trial point group operations.


The dynamic configuration has the point symmetry C_1h.
 The point group associated with its full space group is C_2v.


 Subroutine INISYM returns: Found  4 space group operations
 (whereof  2 operations are pure point group operations),
 and found     1 'primitive' translations

 
 
 KPOINTS: Automatic mesh                          

Automatic generation of k-mesh.
Space group operators:
 irot       det(A)        alpha          n_x          n_y          n_z        tau_x        tau_y        tau_z
    1     1.000000     0.000000     1.000000     0.000000     0.000000     0.000000     0.000000     0.000000
    2    -1.000000   180.000000     1.000000     0.000000     0.000000     0.000000     0.000000     0.000000
    3    -1.000000   179.999999     0.000000     1.000000     0.000000    -0.500000    -0.000000    -0.500000
    4     1.000000   180.000000     0.000000     0.000000     1.000000    -0.500000    -0.000000    -0.500000
 
 Subroutine IBZKPT returns following result:
 ===========================================
 
 Found      8 irreducible k-points:
 
 Following reciprocal coordinates:
            Coordinates               Weight
  0.000000  0.000000  0.000000      1.000000
  0.333333  0.000000  0.000000      2.000000
  0.000000  0.333333  0.000000      2.000000
  0.333333  0.333333  0.000000      4.000000
  0.000000  0.000000  0.333333      2.000000
  0.333333  0.000000  0.333333      4.000000
  0.000000  0.333333  0.333333      4.000000
  0.333333  0.333333  0.333333      8.000000
 
 Following cartesian coordinates:
            Coordinates               Weight
  0.000000  0.000000  0.000000      1.000000
  0.043475  0.000000  0.000000      2.000000
  0.000000  0.053572  0.000000      2.000000
  0.043475  0.053572  0.000000      4.000000
  0.000000  0.000000  0.055260      2.000000
  0.043475  0.000000  0.055260      4.000000
  0.000000  0.053572  0.055260      4.000000
  0.043475  0.053572  0.055260      8.000000
 
 TETIRR: Found     70 inequivalent tetrahedra from      162


--------------------------------------------------------------------------------------------------------




 Dimension of arrays:
   k-points           NKPTS =      8   k-points in BZ     NKDIM =      8   number of bands    NBANDS=     48
   number of dos      NEDOS =    301   number of ions     NIONS =     16
   non local maximal  LDIM  =      4   non local SUM 2l+1 LMDIM =      8
   total plane-waves  NPLWV =  90720
   max r-space proj   IRMAX =   3578   max aug-charges    IRDMAX=  10130
   dimension x,y,z NGX =    54 NGY =   42 NGZ =   40
   dimension x,y,z NGXF=   108 NGYF=   84 NGZF=   80
   support grid    NGXF=   108 NGYF=   84 NGZF=   80
   ions per type =               2   8   6
   NGX,Y,Z   is equivalent  to a cutoff of  11.71, 11.22, 11.02 a.u.
   NGXF,Y,Z  is equivalent  to a cutoff of  23.42, 22.44, 22.05 a.u.

 SYSTEM =  unknown system                          
 POSCAR =  Good luck                               

 Startparameter for this run:
   NWRITE =      2    write-flag & timer
   PREC   = accura    normal or accurate (medium, high low for compatibility)
   ISTART =      0    job   : 0-new  1-cont  2-samecut
   ICHARG =      2    charge: 1-file 2-atom 10-const
   ISPIN  =      1    spin polarized calculation?
   LNONCOLLINEAR =      F non collinear calculations
   LSORBIT =      F    spin-orbit coupling
   INIWAV =      1    electr: 0-lowe 1-rand  2-diag
   LASPH  =      F    aspherical Exc in radial PAW
   METAGGA=      F    non-selfconsistent MetaGGA calc.

 Electronic Relaxation 1
   ENCUT  =  420.0 eV  30.87 Ry    5.56 a.u.  12.81 10.40 10.08*2*pi/ulx,y,z
   ENINI  =  420.0     initial cutoff
   ENAUG  =  628.9 eV  augmentation charge cutoff
   NELM   =    100;   NELMIN=  2; NELMDL= -5     # of ELM steps 
   EDIFF  = 0.2E-04   stopping-criterion for ELM
   LREAL  =      T    real-space projection
   NLSPLINE    = F    spline interpolate recip. space projectors
   LCOMPAT=      F    compatible to vasp.4.4
   GGA_COMPAT  = T    GGA compatible to vasp.4.4-vasp.4.6
   LMAXPAW     = -100 max onsite density
   LMAXMIX     =    2 max onsite mixed and CHGCAR
   VOSKOWN=      0    Vosko Wilk Nusair interpolation
   ROPT   =   -0.00025  -0.00025  -0.00025
 Ionic relaxation
   EDIFFG = 0.2E-03   stopping-criterion for IOM
   NSW    =      0    number of steps for IOM
   NBLOCK =      1;   KBLOCK =      1    inner block; outer block 
   IBRION =     -1    ionic relax: 0-MD 1-quasi-New 2-CG
   NFREE  =      1    steps in history (QN), initial steepest desc. (CG)
   ISIF   =      7    stress and relaxation
   IWAVPR =     10    prediction:  0-non 1-charg 2-wave 3-comb
   ISYM   =      2    0-nonsym 1-usesym 2-fastsym
   LCORR  =      T    Harris-Foulkes like correction to forces

   POTIM  = 0.5000    time-step for ionic-motion
   TEIN   =    0.0    initial temperature
   TEBEG  =    0.0;   TEEND  =   0.0 temperature during run
   SMASS  =  -3.00    Nose mass-parameter (am)
   estimated Nose-frequenzy (Omega)   =  0.10E-29 period in steps =****** mass=  -0.134E-26a.u.
   SCALEE = 1.0000    scale energy and forces
   NPACO  =    256;   APACO  = 16.0  distance and # of slots for P.C.
   PSTRESS=    0.0 pullay stress

  Mass of Ions in am
   POMASS =  30.97 32.07  7.01
  Ionic Valenz
   ZVAL   =   5.00  6.00  3.00
  Atomic Wigner-Seitz radii
   RWIGS  =  -1.00 -1.00 -1.00
  virtual crystal weights 
   VCA    =   1.00  1.00  1.00
   NELECT =      76.0000    total number of electrons
   NUPDOWN=      -1.0000    fix difference up-down

 DOS related values:
   EMIN   =  10.00;   EMAX   =-10.00  energy-range for DOS
   EFERMI =   0.00
   ISMEAR =    -5;   SIGMA  =   0.20  broadening in eV -4-tet -1-fermi 0-gaus

 Electronic relaxation 2 (details)
   IALGO  =     68    algorithm
   LDIAG  =      T    sub-space diagonalisation (order eigenvalues)
   LSUBROT=      F    optimize rotation matrix (better conditioning)
   TURBO    =      0    0=normal 1=particle mesh
   IRESTART =      0    0=no restart 2=restart with 2 vectors
   NREBOOT  =      0    no. of reboots
   NMIN     =      0    reboot dimension
   EREF     =   0.00    reference energy to select bands
   IMIX   =      4    mixing-type and parameters
     AMIX     =   0.40;   BMIX     =  1.00
     AMIX_MAG =   1.60;   BMIX_MAG =  1.00
     AMIN     =   0.10
     WC   =   100.;   INIMIX=   1;  MIXPRE=   1;  MAXMIX= -45

 Intra band minimization:
   WEIMIN = 0.0000     energy-eigenvalue tresh-hold
   EBREAK =  0.10E-06  absolut break condition
   DEPER  =   0.30     relativ break condition  

   TIME   =   0.40     timestep for ELM

  volume/ion in A,a.u.               =      17.99       121.37
  Fermi-wavevector in a.u.,A,eV,Ry     =   1.050342  1.984858 15.010194  1.103218
  Thomas-Fermi vector in A             =   2.185341
 
 Write flags
   LWAVE        =      F    write WAVECAR
   LDOWNSAMPLE  =      F    k-point downsampling of WAVECAR
   LCHARG       =      F    write CHGCAR
   LVTOT        =      F    write LOCPOT, total local potential
   LVHAR        =      F    write LOCPOT, Hartree potential only
   LELF         =      F    write electronic localiz. function (ELF)
   LORBIT       =      0    0 simple, 1 ext, 2 COOP (PROOUT), +10 PAW based schemes


 Dipole corrections
   LMONO  =      F    monopole corrections only (constant potential shift)
   LDIPOL =      F    correct potential (dipole corrections)
   IDIPOL =      0    1-x, 2-y, 3-z, 4-all directions 
   EPSILON=  1.0000000 bulk dielectric constant

 Exchange correlation treatment:
   GGA     =    --    GGA type
   LEXCH   =     2    internal setting for exchange type
   VOSKOWN=      0    Vosko Wilk Nusair interpolation
   LHFCALC =     F    Hartree Fock is set to
   LHFONE  =     F    Hartree Fock one center treatment
   AEXX    =    0.0000 exact exchange contribution

 Linear response parameters
   LEPSILON=     F    determine dielectric tensor
   LRPA    =     F    only Hartree local field effects (RPA)
   LNABLA  =     F    use nabla operator in PAW spheres
   LVEL    =     F    velocity operator in full k-point grid
   LINTERFAST=   F  fast interpolation
   KINTER  =     0    interpolate to denser k-point grid
   CSHIFT  =0.1000    complex shift for real part using Kramers Kronig
   OMEGAMAX=  -1.0    maximum frequency
   DEG_THRESHOLD= 0.2000000E-02 threshold for treating states as degnerate
   RTIME   =   -0.100 relaxation time in fs
  (WPLASMAI=    0.000 imaginary part of plasma frequency in eV, 0.658/RTIME)
   DFIELD  = 0.0000000 0.0000000 0.0000000 field for delta impulse in time
 
 Orbital magnetization related:
   ORBITALMAG=     F  switch on orbital magnetization
   LCHIMAG   =     F  perturbation theory with respect to B field
   DQ        =  0.001000  dq finite difference perturbation B field
   LLRAUG    =     F  two centre corrections for induced B field



--------------------------------------------------------------------------------------------------------


 Static calculation
 charge density and potential will be updated during run
 non-spin polarized calculation
 RMM-DIIS sequential band-by-band and
  variant of blocked Davidson during initial phase
 perform sub-space diagonalisation
    before iterative eigenvector-optimisation
 modified Broyden-mixing scheme, WC =      100.0
 initial mixing is a Kerker type mixing with AMIX =  0.4000 and BMIX =      1.0000
 Hartree-type preconditioning will be used
 using additional bands           10
 real space projection scheme for non local part
 use partial core corrections
 calculate Harris-corrections to forces 
   (improved forces if not selfconsistent)
 use of overlap-Matrix (Vanderbilt PP)
 Fermi weights with tetrahedron method with Bloechl corrections


--------------------------------------------------------------------------------------------------------


  energy-cutoff  :      420.00
  volume of cell :      287.77
      direct lattice vectors                 reciprocal lattice vectors
     7.667166225  0.000000000  0.000000000     0.130426284  0.000000000  0.000000000
     0.000000000  6.222203803  0.000000000     0.000000000  0.160714761  0.000000000
     0.000000000  0.000000000  6.032076935     0.000000000  0.000000000  0.165780379

  length of vectors
     7.667166225  6.222203803  6.032076935     0.130426284  0.160714761  0.165780379


 
 k-points in units of 2pi/SCALE and weight: Automatic mesh                          
   0.00000000  0.00000000  0.00000000       0.037
   0.04347543  0.00000000  0.00000000       0.074
   0.00000000  0.05357159  0.00000000       0.074
   0.04347543  0.05357159  0.00000000       0.148
   0.00000000  0.00000000  0.05526013       0.074
   0.04347543  0.00000000  0.05526013       0.148
   0.00000000  0.05357159  0.05526013       0.148
   0.04347543  0.05357159  0.05526013       0.296
 
 k-points in reciprocal lattice and weights: Automatic mesh                          
   0.00000000  0.00000000  0.00000000       0.037
   0.33333333  0.00000000  0.00000000       0.074
   0.00000000  0.33333333  0.00000000       0.074
   0.33333333  0.33333333  0.00000000       0.148
   0.00000000  0.00000000  0.33333333       0.074
   0.33333333  0.00000000  0.33333333       0.148
   0.00000000  0.33333333  0.33333333       0.148
   0.33333333  0.33333333  0.33333333       0.296
 
 position of ions in fractional coordinates (direct lattice) 
   0.00000000  0.33102315  0.29813335
   0.50000000  0.66897685  0.79813335
   0.21818844  0.16636776  0.20817292
   0.28181156  0.83363224  0.70817292
   0.71818844  0.83363224  0.70817292
   0.78181156  0.16636776  0.20817292
   0.00000000  0.62700465  0.16379203
   0.50000000  0.37299535  0.66379203
   0.00000000  0.33497644  0.63755495
   0.50000000  0.66502356  0.13755495
   0.00000000  0.65893148  0.77170815
   0.50000000  0.34106852  0.27170815
   0.25240680  0.18011980  0.80213765
   0.24759320  0.81988020  0.30213765
   0.75240680  0.81988020  0.30213765
   0.74759320  0.18011980  0.80213765
 
 position of ions in cartesian coordinates  (Angst):
   0.00000000  2.05969348  1.79836331
   3.83358311  4.16251032  4.81440178
   1.67288706  1.03517413  1.25571506
   2.16069605  5.18702967  4.27175353
   5.50647017  5.18702967  4.27175353
   5.99427916  1.03517413  1.25571506
   0.00000000  3.90135074  0.98800613
   3.83358311  2.32085306  4.00404460
   0.00000000  2.08429165  3.84578053
   3.83358311  4.13791215  0.82974206
   0.00000000  4.10000598  4.65500292
   3.83358311  2.12219783  1.63896445
   1.93524488  1.12074208  4.83855600
   1.89833823  5.10146172  1.82251753
   5.76882799  5.10146172  1.82251753
   5.73192135  1.12074208  4.83855600
 


--------------------------------------------------------------------------------------------------------


 k-point  1 :   0.0000 0.0000 0.0000  plane waves:    5645
 k-point  2 :   0.3333 0.0000 0.0000  plane waves:    5620
 k-point  3 :   0.0000 0.3333 0.0000  plane waves:    5611
 k-point  4 :   0.3333 0.3333 0.0000  plane waves:    5611
 k-point  5 :   0.0000 0.0000 0.3333  plane waves:    5632
 k-point  6 :   0.3333 0.0000 0.3333  plane waves:    5629
 k-point  7 :   0.0000 0.3333 0.3333  plane waves:    5628
 k-point  8 :   0.3333 0.3333 0.3333  plane waves:    5625

 maximum and minimum number of plane-waves per node :       374      335

 maximum number of plane-waves:      5645
 maximum index in each direction: 
   IXMAX=   12   IYMAX=   10   IZMAX=   10
   IXMIN=  -13   IYMIN=  -10   IZMIN=  -10


 real space projection operators:
  total allocation   :       2660.39 KBytes
  max/ min on nodes  :        202.98        143.81


 parallel 3D FFT for wavefunctions:
    minimum data exchange during FFTs selected (reduces bandwidth)
 parallel 3D FFT for charge:
    minimum data exchange during FFTs selected (reduces bandwidth)


 total amount of memory used by VASP MPI-rank0    33581. kBytes
=======================================================================

   base      :      30000. kBytes
   nonlr-proj:       1216. kBytes
   fftplans  :        656. kBytes
   grid      :       1147. kBytes
   one-center:          3. kBytes
   wavefun   :        559. kBytes
 
     INWAV:  cpu time    0.0000: real time    0.0000
 Broyden mixing: mesh for mixing (old mesh)
   NGX = 25   NGY = 21   NGZ = 21
  (NGX  =108   NGY  = 84   NGZ  = 80)
  gives a total of  11025 points

 initial charge density was supplied:
 charge density of overlapping atoms calculated
 number of electron      76.0000000 magnetization 
 keeping initial charge density in first step


--------------------------------------------------------------------------------------------------------


 Maximum index for non-local projection operator          432
 Maximum index for augmentation-charges          527 (set IRDMAX)


--------------------------------------------------------------------------------------------------------


 First call to EWALD:  gamma=   0.268
 Maximum number of real-space cells 2x 3x 3
 Maximum number of reciprocal cells 3x 3x 3

    FEWALD:  cpu time    0.0015: real time    0.0016


--------------------------------------- Iteration      1(   1)  ---------------------------------------


    POTLOK:  cpu time    0.0049: real time    0.0079
    SETDIJ:  cpu time    0.0032: real time    0.0040
     EDDAV:  cpu time    0.1950: real time    0.2027
 BZINTS: Fermi energy: 15.051909; 76.000000 electrons
         Band energy:-118.271523;  BLOECHL correction: -0.068898
       DOS:  cpu time    0.0044: real time    0.0049
    --------------------------------------------
      LOOP:  cpu time    0.2075: real time    0.2195

 eigenvalue-minimisations  :   768
 total energy-change (2. order) : 0.5047752E+03  (-0.2857254E+04)
 number of electron      76.0000000 magnetization 
 augmentation part       76.0000000 magnetization 

 Free energy of the ion-electron system (eV)
  ---------------------------------------------------
  alpha Z        PSCENC =        68.57190477
  Ewald energy   TEWEN  =     -2730.37422078
  -Hartree energ DENC   =      -619.22905633
  -exchange      EXHF   =         0.00000000
  -V(xc)+E(xc)   XCENC  =       181.88800623
  PAW double counting   =      2494.22442938    -2541.12215007
  entropy T*S    EENTRO =         0.00000000
  eigenvalues    EBANDS =      -118.27152255
  atomic energy  EATOM  =      3769.08782378
  Solvation  Ediel_sol  =         0.00000000
  ---------------------------------------------------
  free energy    TOTEN  =       504.77521444 eV

  energy without entropy =      504.77521444  energy(sigma->0) =      504.77521444


--------------------------------------------------------------------------------------------------------




--------------------------------------- Iteration      1(   2)  ---------------------------------------


     EDDAV:  cpu time    0.1964: real time    0.2027
 BZINTS: Fermi energy:  5.331878; 76.000000 electrons
         Band energy:-631.156334;  BLOECHL correction:  0.000000
       DOS:  cpu time    0.0009: real time    0.0009
    --------------------------------------------
      LOOP:  cpu time    0.1973: real time    0.2036

 eigenvalue-minimisations  :   904
 total energy-change (2. order) :-0.5128848E+03  (-0.4881263E+03)
 number of electron      76.0000000 magnetization 
 augmentation part       76.0000000 magnetization 

 Free energy of the ion-electron system (eV)
  ---------------------------------------------------
  alpha Z        PSCENC =        68.57190477
  Ewald energy   TEWEN  =     -2730.37422078
  -Hartree energ DENC   =      -619.22905633
  -exchange      EXHF   =         0.00000000
  -V(xc)+E(xc)   XCENC  =       181.88800623
  PAW double counting   =      2494.22442938    -2541.12215007
  entropy T*S    EENTRO =         0.00000000
  eigenvalues    EBANDS =      -631.15633402
  atomic energy  EATOM  =      3769.08782378
  Solvation  Ediel_sol  =         0.00000000
  ---------------------------------------------------
  free energy    TOTEN  =        -8.10959703 eV

  energy without entropy =       -8.10959703  energy(sigma->0) =       -8.10959703


--------------------------------------------------------------------------------------------------------




--------------------------------------- Iteration      1(   3)  ---------------------------------------


     EDDAV:  cpu time    0.2286: real time    0.2290
 BZINTS: Fermi energy:  1.697324; 76.000000 electrons
         Band energy:-694.820120;  BLOECHL correction:  0.000000
       DOS:  cpu time    0.0007: real time    0.0007
    --------------------------------------------
      LOOP:  cpu time    0.2293: real time    0.2296

 eigenvalue-minimisations  :  1072
 total energy-change (2. order) :-0.6366379E+02  (-0.6307274E+02)
 number of electron      76.0000000 magnetization 
 augmentation part       76.0000000 magnetization 

 Free energy of the ion-electron system (eV)
  ---------------------------------------------------
  alpha Z        PSCENC =        68.57190477
  Ewald energy   TEWEN  =     -2730.37422078
  -Hartree energ DENC   =      -619.22905633
  -exchange      EXHF   =         0.00000000
  -V(xc)+E(xc)   XCENC  =       181.88800623
  PAW double counting   =      2494.22442938    -2541.12215007
  entropy T*S    EENTRO =         0.00000000
  eigenvalues    EBANDS =      -694.82011971
  atomic energy  EATOM  =      3769.08782378
  Solvation  Ediel_sol  =         0.00000000
  ---------------------------------------------------
  free energy    TOTEN  =       -71.77338272 eV

  energy without entropy =      -71.77338272  energy(sigma->0) =      -71.77338272


--------------------------------------------------------------------------------------------------------




--------------------------------------- Iteration      1(   4)  ---------------------------------------


     EDDAV:  cpu time    0.2776: real time    0.2778
 BZINTS: Fermi energy:  1.594917; 76.000000 electrons
         Band energy:-702.063031;  BLOECHL correction:  0.000000
       DOS:  cpu time    0.0007: real time    0.0007
    --------------------------------------------
      LOOP:  cpu time    0.2782: real time    0.2785

 eigenvalue-minimisations  :  1424
 total energy-change (2. order) :-0.7242911E+01  (-0.7219018E+01)
 number of electron      76.0000000 magnetization 
 augmentation part       76.0000000 magnetization 

 Free energy of the ion-electron system (eV)
  ---------------------------------------------------
  alpha Z        PSCENC =        68.57190477
  Ewald energy   TEWEN  =     -2730.37422078
  -Hartree energ DENC   =      -619.22905633
  -exchange      EXHF   =         0.00000000
  -V(xc)+E(xc)   XCENC  =       181.88800623
  PAW double counting   =      2494.22442938    -2541.12215007
  entropy T*S    EENTRO =         0.00000000
  eigenvalues    EBANDS =      -702.06303077
  atomic energy  EATOM  =      3769.08782378
  Solvation  Ediel_sol  =         0.00000000
  ---------------------------------------------------
  free energy    TOTEN  =       -79.01629378 eV

  energy without entropy =      -79.01629378  energy(sigma->0) =      -79.01629378


--------------------------------------------------------------------------------------------------------




--------------------------------------- Iteration      1(   5)  ---------------------------------------


     EDDAV:  cpu time    0.2255: real time    0.2258
 BZINTS: Fermi energy:  1.651306; 76.000000 electrons
         Band energy:-702.898812;  BLOECHL correction:  0.000000
       DOS:  cpu time    0.0007: real time    0.0007
    CHARGE:  cpu time    0.0156: real time    0.0157
    MIXING:  cpu time    0.0011: real time    0.0018
    --------------------------------------------
      LOOP:  cpu time    0.2429: real time    0.2439

 eigenvalue-minimisations  :  1104
 total energy-change (2. order) :-0.8357814E+00  (-0.8356237E+00)
 number of electron      76.0000017 magnetization 
 augmentation part       -1.8519378 magnetization 

 Broyden mixing:
  rms(total) = 0.21877E+01    rms(broyden)= 0.21874E+01
  rms(prec ) = 0.24625E+01
  weight for this iteration     100.00

 Free energy of the ion-electron system (eV)
  ---------------------------------------------------
  alpha Z        PSCENC =        68.57190477
  Ewald energy   TEWEN  =     -2730.37422078
  -Hartree energ DENC   =      -619.22905633
  -exchange      EXHF   =         0.00000000
  -V(xc)+E(xc)   XCENC  =       181.88800623
  PAW double counting   =      2494.22442938    -2541.12215007
  entropy T*S    EENTRO =         0.00000000
  eigenvalues    EBANDS =      -702.89881215
  atomic energy  EATOM  =      3769.08782378
  Solvation  Ediel_sol  =         0.00000000
  ---------------------------------------------------
  free energy    TOTEN  =       -79.85207516 eV

  energy without entropy =      -79.85207516  energy(sigma->0) =      -79.85207516


--------------------------------------------------------------------------------------------------------




--------------------------------------- Iteration      1(   6)  ---------------------------------------


    POTLOK:  cpu time    0.0032: real time    0.0034
    SETDIJ:  cpu time    0.0009: real time    0.0009
    EDDIAG:  cpu time    0.0503: real time    0.0509
  RMM-DIIS:  cpu time    0.0782: real time    0.0782
    ORTHCH:  cpu time    0.0067: real time    0.0067
 BZINTS: Fermi energy:  2.117819; 76.000000 electrons
         Band energy:-685.377281;  BLOECHL correction:  0.000000
       DOS:  cpu time    0.0007: real time    0.0007
    CHARGE:  cpu time    0.0145: real time    0.0145
    MIXING:  cpu time    0.0007: real time    0.0007
    --------------------------------------------
      LOOP:  cpu time    0.1552: real time    0.1561

 eigenvalue-minimisations  :   887
 total energy-change (2. order) : 0.2376390E+01  (-0.7164132E+00)
 number of electron      76.0000017 magnetization 
 augmentation part       -1.7922352 magnetization 

 Broyden mixing:
  rms(total) = 0.14773E+01    rms(broyden)= 0.14773E+01
  rms(prec ) = 0.15422E+01
  weight for this iteration     100.00

 eigenvalues of (default mixing * dielectric matrix)
  average eigenvalue GAMMA=   2.3492
  2.3492

 Free energy of the ion-electron system (eV)
  ---------------------------------------------------
  alpha Z        PSCENC =        68.57190477
  Ewald energy   TEWEN  =     -2730.37422078
  -Hartree energ DENC   =      -634.50519900
  -exchange      EXHF   =         0.00000000
  -V(xc)+E(xc)   XCENC  =       183.70913990
  PAW double counting   =      3970.64600064    -4019.23385343
  entropy T*S    EENTRO =         0.00000000
  eigenvalues    EBANDS =      -685.37728083
  atomic energy  EATOM  =      3769.08782378
  Solvation  Ediel_sol  =         0.00000000
  ---------------------------------------------------
  free energy    TOTEN  =       -77.47568495 eV

  energy without entropy =      -77.47568495  energy(sigma->0) =      -77.47568495


--------------------------------------------------------------------------------------------------------




--------------------------------------- Iteration      1(   7)  ---------------------------------------


    POTLOK:  cpu time    0.0029: real time    0.0032
    SETDIJ:  cpu time    0.0009: real time    0.0009
    EDDIAG:  cpu time    0.0497: real time    0.0497
  RMM-DIIS:  cpu time    0.0849: real time    0.0849
    ORTHCH:  cpu time    0.0067: real time    0.0067
 BZINTS: Fermi energy:  2.406334; 76.000000 electrons
         Band energy:-670.320099;  BLOECHL correction:  0.000000
       DOS:  cpu time    0.0007: real time    0.0007
    CHARGE:  cpu time    0.0143: real time    0.0143
    MIXING:  cpu time    0.0005: real time    0.0005
    --------------------------------------------
      LOOP:  cpu time    0.1606: real time    0.1610

 eigenvalue-minimisations  :   982
 total energy-change (2. order) : 0.4251113E+00  (-0.2113398E+00)
 number of electron      76.0000017 magnetization 
 augmentation part       -1.7512241 magnetization 

 Broyden mixing:
  rms(total) = 0.50480E+00    rms(broyden)= 0.50480E+00
  rms(prec ) = 0.52898E+00
  weight for this iteration     100.00

 eigenvalues of (default mixing * dielectric matrix)
  average eigenvalue GAMMA=   1.9173
  1.3976  2.4370

 Free energy of the ion-electron system (eV)
  ---------------------------------------------------
  alpha Z        PSCENC =        68.57190477
  Ewald energy   TEWEN  =     -2730.37422078
  -Hartree energ DENC   =      -649.46476448
  -exchange      EXHF   =         0.00000000
  -V(xc)+E(xc)   XCENC  =       185.39858968
  PAW double counting   =      6481.58947971    -6531.53928783
  entropy T*S    EENTRO =         0.00000000
  eigenvalues    EBANDS =      -670.32009853
  atomic energy  EATOM  =      3769.08782378
  Solvation  Ediel_sol  =         0.00000000
  ---------------------------------------------------
  free energy    TOTEN  =       -77.05057368 eV

  energy without entropy =      -77.05057368  energy(sigma->0) =      -77.05057368


--------------------------------------------------------------------------------------------------------




--------------------------------------- Iteration      1(   8)  ---------------------------------------


    POTLOK:  cpu time    0.0029: real time    0.0032
    SETDIJ:  cpu time    0.0009: real time    0.0009
    EDDIAG:  cpu time    0.0491: real time    0.0491
  RMM-DIIS:  cpu time    0.0904: real time    0.0904
    ORTHCH:  cpu time    0.0067: real time    0.0067
 BZINTS: Fermi energy:  2.388131; 76.000000 electrons
         Band energy:-668.013647;  BLOECHL correction:  0.000000
       DOS:  cpu time    0.0008: real time    0.0008
    CHARGE:  cpu time    0.0144: real time    0.0144
    MIXING:  cpu time    0.0005: real time    0.0005
    --------------------------------------------
      LOOP:  cpu time    0.1657: real time    0.1660

 eigenvalue-minimisations  :  1026
 total energy-change (2. order) : 0.6570750E-01  (-0.2452292E-01)
 number of electron      76.0000017 magnetization 
 augmentation part       -1.7683685 magnetization 

 Broyden mixing:
  rms(total) = 0.49614E-01    rms(broyden)= 0.49587E-01
  rms(prec ) = 0.64563E-01
  weight for this iteration     100.00

 eigenvalues of (default mixing * dielectric matrix)
  average eigenvalue GAMMA=   1.6415
  1.0584  2.3187  1.5473

 Free energy of the ion-electron system (eV)
  ---------------------------------------------------
  alpha Z        PSCENC =        68.57190477
  Ewald energy   TEWEN  =     -2730.37422078
  -Hartree energ DENC   =      -651.84030228
  -exchange      EXHF   =         0.00000000
  -V(xc)+E(xc)   XCENC  =       185.68607274
  PAW double counting   =      7551.89694446    -7601.99944174
  entropy T*S    EENTRO =         0.00000000
  eigenvalues    EBANDS =      -668.01364714
  atomic energy  EATOM  =      3769.08782378
  Solvation  Ediel_sol  =         0.00000000
  ---------------------------------------------------
  free energy    TOTEN  =       -76.98486618 eV

  energy without entropy =      -76.98486618  energy(sigma->0) =      -76.98486618


--------------------------------------------------------------------------------------------------------




--------------------------------------- Iteration      1(   9)  ---------------------------------------


    POTLOK:  cpu time    0.0028: real time    0.0031
    SETDIJ:  cpu time    0.0009: real time    0.0009
    EDDIAG:  cpu time    0.0645: real time    0.0645
  RMM-DIIS:  cpu time    0.1000: real time    0.1000
    ORTHCH:  cpu time    0.0068: real time    0.0068
 BZINTS: Fermi energy:  2.385121; 76.000000 electrons
         Band energy:-668.880770;  BLOECHL correction:  0.000000
       DOS:  cpu time    0.0008: real time    0.0008
    CHARGE:  cpu time    0.0144: real time    0.0144
    MIXING:  cpu time    0.0005: real time    0.0005
    --------------------------------------------
      LOOP:  cpu time    0.1906: real time    0.1909

 eigenvalue-minimisations  :  1141
 total energy-change (2. order) : 0.5718480E-02  (-0.2747170E-02)
 number of electron      76.0000017 magnetization 
 augmentation part       -1.7831825 magnetization 

 Broyden mixing:
  rms(total) = 0.27866E-01    rms(broyden)= 0.27851E-01
  rms(prec ) = 0.29946E-01
  weight for this iteration     100.00

 eigenvalues of (default mixing * dielectric matrix)
  average eigenvalue GAMMA=   1.7958
  2.2852  2.2852  1.3064  1.3064

 Free energy of the ion-electron system (eV)
  ---------------------------------------------------
  alpha Z        PSCENC =        68.57190477
  Ewald energy   TEWEN  =     -2730.37422078
  -Hartree energ DENC   =      -650.99657274
  -exchange      EXHF   =         0.00000000
  -V(xc)+E(xc)   XCENC  =       185.63603543
  PAW double counting   =      7452.35459593    -7502.37794377
  entropy T*S    EENTRO =         0.00000000
  eigenvalues    EBANDS =      -668.88077032
  atomic energy  EATOM  =      3769.08782378
  Solvation  Ediel_sol  =         0.00000000
  ---------------------------------------------------
  free energy    TOTEN  =       -76.97914770 eV

  energy without entropy =      -76.97914770  energy(sigma->0) =      -76.97914770


--------------------------------------------------------------------------------------------------------




--------------------------------------- Iteration      1(  10)  ---------------------------------------


    POTLOK:  cpu time    0.0029: real time    0.0032
    SETDIJ:  cpu time    0.0009: real time    0.0009
    EDDIAG:  cpu time    0.0498: real time    0.0498
  RMM-DIIS:  cpu time    0.1043: real time    0.1043
    ORTHCH:  cpu time    0.0068: real time    0.0068
 BZINTS: Fermi energy:  2.384682; 76.000000 electrons
         Band energy:-668.789940;  BLOECHL correction:  0.000000
       DOS:  cpu time    0.0008: real time    0.0008
    CHARGE:  cpu time    0.0143: real time    0.0143
    MIXING:  cpu time    0.0005: real time    0.0006
    --------------------------------------------
      LOOP:  cpu time    0.1802: real time    0.1806

 eigenvalue-minimisations  :  1223
 total energy-change (2. order) :-0.6006686E-03  (-0.7550003E-03)
 number of electron      76.0000017 magnetization 
 augmentation part       -1.7888136 magnetization 

 Broyden mixing:
  rms(total) = 0.12586E-01    rms(broyden)= 0.12570E-01
  rms(prec ) = 0.14335E-01
  weight for this iteration     100.00

 eigenvalues of (default mixing * dielectric matrix)
  average eigenvalue GAMMA=   1.8158
  2.5240  2.5240  1.8156  0.9329  1.2823

 Free energy of the ion-electron system (eV)
  ---------------------------------------------------
  alpha Z        PSCENC =        68.57190477
  Ewald energy   TEWEN  =     -2730.37422078
  -Hartree energ DENC   =      -651.11753151
  -exchange      EXHF   =         0.00000000
  -V(xc)+E(xc)   XCENC  =       185.64042761
  PAW double counting   =      7412.44524431    -7462.44345690
  entropy T*S    EENTRO =         0.00000000
  eigenvalues    EBANDS =      -668.78993964
  atomic energy  EATOM  =      3769.08782378
  Solvation  Ediel_sol  =         0.00000000
  ---------------------------------------------------
  free energy    TOTEN  =       -76.97974837 eV

  energy without entropy =      -76.97974837  energy(sigma->0) =      -76.97974837


--------------------------------------------------------------------------------------------------------




--------------------------------------- Iteration      1(  11)  ---------------------------------------


    POTLOK:  cpu time    0.0029: real time    0.0032
    SETDIJ:  cpu time    0.0009: real time    0.0009
    EDDIAG:  cpu time    0.0491: real time    0.0491
  RMM-DIIS:  cpu time    0.1098: real time    0.1098
    ORTHCH:  cpu time    0.0071: real time    0.0071
 BZINTS: Fermi energy:  2.386257; 76.000000 electrons
         Band energy:-668.480108;  BLOECHL correction:  0.000000
       DOS:  cpu time    0.0008: real time    0.0008
    CHARGE:  cpu time    0.0145: real time    0.0145
    MIXING:  cpu time    0.0005: real time    0.0005
    --------------------------------------------
      LOOP:  cpu time    0.1856: real time    0.1859

 eigenvalue-minimisations  :  1208
 total energy-change (2. order) :-0.1721237E-03  (-0.1980910E-03)
 number of electron      76.0000017 magnetization 
 augmentation part       -1.7902615 magnetization 

 Broyden mixing:
  rms(total) = 0.21746E-02    rms(broyden)= 0.21479E-02
  rms(prec ) = 0.30686E-02
  weight for this iteration     100.00

 eigenvalues of (default mixing * dielectric matrix)
  average eigenvalue GAMMA=   1.7316
  2.5378  2.5378  1.5283  1.5283  1.1288  1.1288

 Free energy of the ion-electron system (eV)
  ---------------------------------------------------
  alpha Z        PSCENC =        68.57190477
  Ewald energy   TEWEN  =     -2730.37422078
  -Hartree energ DENC   =      -651.47328521
  -exchange      EXHF   =         0.00000000
  -V(xc)+E(xc)   XCENC  =       185.67209713
  PAW double counting   =      7394.47394140    -7444.45807387
  entropy T*S    EENTRO =         0.00000000
  eigenvalues    EBANDS =      -668.48010772
  atomic energy  EATOM  =      3769.08782378
  Solvation  Ediel_sol  =         0.00000000
  ---------------------------------------------------
  free energy    TOTEN  =       -76.97992049 eV

  energy without entropy =      -76.97992049  energy(sigma->0) =      -76.97992049


--------------------------------------------------------------------------------------------------------




--------------------------------------- Iteration      1(  12)  ---------------------------------------


    POTLOK:  cpu time    0.0030: real time    0.0033
    SETDIJ:  cpu time    0.0009: real time    0.0009
    EDDIAG:  cpu time    0.0497: real time    0.0497
  RMM-DIIS:  cpu time    0.0957: real time    0.0957
    ORTHCH:  cpu time    0.0067: real time    0.0067
 BZINTS: Fermi energy:  2.384823; 76.000000 electrons
         Band energy:-668.492631;  BLOECHL correction:  0.000000
       DOS:  cpu time    0.0008: real time    0.0008
    CHARGE:  cpu time    0.0143: real time    0.0143
    MIXING:  cpu time    0.0005: real time    0.0005
    --------------------------------------------
      LOOP:  cpu time    0.1716: real time    0.1719

 eigenvalue-minimisations  :  1082
 total energy-change (2. order) :-0.6164755E-04  (-0.7710930E-04)
 number of electron      76.0000017 magnetization 
 augmentation part       -1.7918679 magnetization 

 Broyden mixing:
  rms(total) = 0.11715E-02    rms(broyden)= 0.11519E-02
  rms(prec ) = 0.15135E-02
  weight for this iteration     100.00

 eigenvalues of (default mixing * dielectric matrix)
  average eigenvalue GAMMA=   1.6155
  2.5014  2.5014  1.7433  1.7433  1.2102  1.0512  0.5574

 Free energy of the ion-electron system (eV)
  ---------------------------------------------------
  alpha Z        PSCENC =        68.57190477
  Ewald energy   TEWEN  =     -2730.37422078
  -Hartree energ DENC   =      -651.47178855
  -exchange      EXHF   =         0.00000000
  -V(xc)+E(xc)   XCENC  =       185.67417429
  PAW double counting   =      7398.56716219    -7448.54240727
  entropy T*S    EENTRO =         0.00000000
  eigenvalues    EBANDS =      -668.49263057
  atomic energy  EATOM  =      3769.08782378
  Solvation  Ediel_sol  =         0.00000000
  ---------------------------------------------------
  free energy    TOTEN  =       -76.97998214 eV

  energy without entropy =      -76.97998214  energy(sigma->0) =      -76.97998214


--------------------------------------------------------------------------------------------------------




--------------------------------------- Iteration      1(  13)  ---------------------------------------


    POTLOK:  cpu time    0.0028: real time    0.0031
    SETDIJ:  cpu time    0.0009: real time    0.0009
    EDDIAG:  cpu time    0.0495: real time    0.0495
  RMM-DIIS:  cpu time    0.0688: real time    0.0688
    ORTHCH:  cpu time    0.0067: real time    0.0067
 BZINTS: Fermi energy:  2.383925; 76.000000 electrons
         Band energy:-668.472606;  BLOECHL correction:  0.000000
       DOS:  cpu time    0.0008: real time    0.0008
    --------------------------------------------
      LOOP:  cpu time    0.1294: real time    0.1297

 eigenvalue-minimisations  :   777
 total energy-change (2. order) :-0.1275766E-04  (-0.1853703E-04)
 number of electron      76.0000017 magnetization 
 augmentation part       -1.7918679 magnetization 

 Free energy of the ion-electron system (eV)
  ---------------------------------------------------
  alpha Z        PSCENC =        68.57190477
  Ewald energy   TEWEN  =     -2730.37422078
  -Hartree energ DENC   =      -651.49876456
  -exchange      EXHF   =         0.00000000
  -V(xc)+E(xc)   XCENC  =       185.67654129
  PAW double counting   =      7399.50945011    -7449.48012375
  entropy T*S    EENTRO =         0.00000000
  eigenvalues    EBANDS =      -668.47260576
  atomic energy  EATOM  =      3769.08782378
  Solvation  Ediel_sol  =         0.00000000
  ---------------------------------------------------
  free energy    TOTEN  =       -76.97999490 eV

  energy without entropy =      -76.97999490  energy(sigma->0) =      -76.97999490


--------------------------------------------------------------------------------------------------------




 average (electrostatic) potential at core
  the test charge radii are     0.9587  0.9698  0.7079
  (the norm of the test charge is              1.0000)
       1 -88.3758       2 -88.3758       3 -88.2409       4 -88.2409       5 -88.2409
       6 -88.2409       7 -88.3529       8 -88.3529       9 -88.1933      10 -88.1933
      11 -63.7488      12 -63.7488      13 -63.6022      14 -63.6022      15 -63.6022
      16 -63.6022
 
 
 
 E-fermi :   2.3839     XC(G=0):  -9.1085     alpha+bet :-10.4951


 k-point     1 :       0.0000    0.0000    0.0000
  band No.  band energies     occupation 
      1     -40.9270      2.00000
      2     -40.9269      2.00000
      3     -40.7783      2.00000
      4     -40.7777      2.00000
      5     -40.7775      2.00000
      6     -40.7769      2.00000
      7     -12.6441      2.00000
      8     -12.4710      2.00000
      9      -9.5652      2.00000
     10      -9.5576      2.00000
     11      -9.4502      2.00000
     12      -9.3522      2.00000
     13      -9.3148      2.00000
     14      -9.2328      2.00000
     15      -5.6398      2.00000
     16      -5.0503      2.00000
     17      -2.6290      2.00000
     18      -2.6018      2.00000
     19      -2.4735      2.00000
     20      -2.2827      2.00000
     21      -2.1125      2.00000
     22      -2.0799      2.00000
     23      -0.1866      2.00000
     24       0.0058      2.00000
     25       0.2101      2.00000
     26       0.2238      2.00000
     27       0.3648      2.00000
     28       0.4844      2.00000
     29       0.9387      2.00000
     30       1.2020      2.00000
     31       1.2467      2.00000
     32       1.2980      2.00000
     33       1.7891      2.00000
     34       1.7929      2.00000
     35       1.8740      2.00000
     36       1.9282      2.00000
     37       2.0322      2.00000
     38       2.2488      2.00000
     39       5.5310      0.00000
     40       5.6272      0.00000
     41       6.0609      0.00000
     42       6.3689      0.00000
     43       6.4764      0.00000
     44       7.1719      0.00000
     45       7.2840      0.00000
     46       7.3276      0.00000
     47       8.0372      0.00000
     48       8.5921      0.00000

 k-point     2 :       0.3333    0.0000    0.0000
  band No.  band energies     occupation 
      1     -40.9270      2.00000
      2     -40.9269      2.00000
      3     -40.7782      2.00000
      4     -40.7778      2.00000
      5     -40.7773      2.00000
      6     -40.7770      2.00000
      7     -12.6024      2.00000
      8     -12.5159      2.00000
      9      -9.5336      2.00000
     10      -9.5146      2.00000
     11      -9.4743      2.00000
     12      -9.3937      2.00000
     13      -9.3136      2.00000
     14      -9.2569      2.00000
     15      -5.4649      2.00000
     16      -5.1696      2.00000
     17      -2.6390      2.00000
     18      -2.6118      2.00000
     19      -2.5136      2.00000
     20      -2.2356      2.00000
     21      -2.1561      2.00000
     22      -2.1229      2.00000
     23      -0.0977      2.00000
     24       0.1084      2.00000
     25       0.1681      2.00000
     26       0.3364      2.00000
     27       0.4234      2.00000
     28       0.4862      2.00000
     29       0.9509      2.00000
     30       1.2209      2.00000
     31       1.3190      2.00000
     32       1.4421      2.00000
     33       1.4653      2.00000
     34       1.5257      2.00000
     35       1.8020      2.00000
     36       1.8045      2.00000
     37       2.0102      2.00000
     38       2.0709      2.00000
     39       5.9152      0.00000
     40       6.0366      0.00000
     41       6.4036      0.00000
     42       6.4245      0.00000
     43       6.8031      0.00000
     44       6.9668      0.00000
     45       7.1414      0.00000
     46       7.1616      0.00000
     47       7.9844      0.00000
     48       8.6319      0.00000

 k-point     3 :       0.0000    0.3333    0.0000
  band No.  band energies     occupation 
      1     -40.9269      2.00000
      2     -40.9269      2.00000
      3     -40.7783      2.00000
      4     -40.7777      2.00000
      5     -40.7775      2.00000
      6     -40.7768      2.00000
      7     -12.5947      2.00000
      8     -12.4850      2.00000
      9      -9.6979      2.00000
     10      -9.5300      2.00000
     11      -9.4678      2.00000
     12      -9.3459      2.00000
     13      -9.3443      2.00000
     14      -9.2414      2.00000
     15      -5.4044      2.00000
     16      -5.0890      2.00000
     17      -2.6483      2.00000
     18      -2.5324      2.00000
     19      -2.3301      2.00000
     20      -2.2784      2.00000
     21      -2.1548      2.00000
     22      -2.1440      2.00000
     23      -0.1180      2.00000
     24       0.0320      2.00000
     25       0.0698      2.00000
     26       0.2657      2.00000
     27       0.5813      2.00000
     28       0.5882      2.00000
     29       0.9192      2.00000
     30       0.9608      2.00000
     31       1.4408      2.00000
     32       1.4595      2.00000
     33       1.4695      2.00000
     34       1.5595      2.00000
     35       1.7960      2.00000
     36       1.9507      2.00000
     37       2.0218      2.00000
     38       2.2047      2.00000
     39       5.0246      0.00000
     40       5.8892      0.00000
     41       6.4739      0.00000
     42       6.4868      0.00000
     43       6.6370      0.00000
     44       7.0194      0.00000
     45       7.0814      0.00000
     46       7.1042      0.00000
     47       8.1083      0.00000
     48       8.7842      0.00000

 k-point     4 :       0.3333    0.3333    0.0000
  band No.  band energies     occupation 
      1     -40.9269      2.00000
      2     -40.9269      2.00000
      3     -40.7781      2.00000
      4     -40.7779      2.00000
      5     -40.7773      2.00000
      6     -40.7770      2.00000
      7     -12.5669      2.00000
      8     -12.5120      2.00000
      9      -9.6855      2.00000
     10      -9.6129      2.00000
     11      -9.4211      2.00000
     12      -9.3864      2.00000
     13      -9.2821      2.00000
     14      -9.2495      2.00000
     15      -5.2956      2.00000
     16      -5.1378      2.00000
     17      -2.6073      2.00000
     18      -2.5210      2.00000
     19      -2.3993      2.00000
     20      -2.2518      2.00000
     21      -2.1897      2.00000
     22      -2.1621      2.00000
     23      -0.1504      2.00000
     24       0.0052      2.00000
     25       0.1362      2.00000
     26       0.2477      2.00000
     27       0.5399      2.00000
     28       0.7728      2.00000
     29       0.8535      2.00000
     30       0.9841      2.00000
     31       1.1963      2.00000
     32       1.3290      2.00000
     33       1.4730      2.00000
     34       1.5408      2.00000
     35       1.7915      2.00000
     36       1.9957      2.00000
     37       2.0548      2.00000
     38       2.0826      2.00000
     39       5.5485      0.00000
     40       6.0890      0.00000
     41       6.4307      0.00000
     42       6.5403      0.00000
     43       6.7008      0.00000
     44       6.9200      0.00000
     45       6.9986      0.00000
     46       7.3796      0.00000
     47       8.2497      0.00000
     48       8.7517      0.00000

 k-point     5 :       0.0000    0.0000    0.3333
  band No.  band energies     occupation 
      1     -40.9270      2.00000
      2     -40.9269      2.00000
      3     -40.7781      2.00000
      4     -40.7777      2.00000
      5     -40.7775      2.00000
      6     -40.7771      2.00000
      7     -12.5743      2.00000
      8     -12.4849      2.00000
      9      -9.6087      2.00000
     10      -9.5296      2.00000
     11      -9.4994      2.00000
     12      -9.3782      2.00000
     13      -9.3702      2.00000
     14      -9.3289      2.00000
     15      -5.4541      2.00000
     16      -5.1302      2.00000
     17      -2.4705      2.00000
     18      -2.3503      2.00000
     19      -2.2033      2.00000
     20      -2.1426      2.00000
     21      -2.1067      2.00000
     22      -1.9839      2.00000
     23      -0.2756      2.00000
     24      -0.2199      2.00000
     25      -0.0998      2.00000
     26      -0.0312      2.00000
     27       0.3713      2.00000
     28       0.6536      2.00000
     29       1.0696      2.00000
     30       1.1092      2.00000
     31       1.1298      2.00000
     32       1.4325      2.00000
     33       1.6466      2.00000
     34       1.7190      2.00000
     35       1.8863      2.00000
     36       1.9640      2.00000
     37       1.9763      2.00000
     38       2.3489      2.00000
     39       5.0253      0.00000
     40       5.4654      0.00000
     41       5.9929      0.00000
     42       6.4935      0.00000
     43       6.8711      0.00000
     44       6.9888      0.00000
     45       7.1522      0.00000
     46       7.3625      0.00000
     47       8.3676      0.00000
     48       8.6399      0.00000

 k-point     6 :       0.3333    0.0000    0.3333
  band No.  band energies     occupation 
      1     -40.9269      2.00000
      2     -40.9269      2.00000
      3     -40.7779      2.00000
      4     -40.7776      2.00000
      5     -40.7775      2.00000
      6     -40.7772      2.00000
      7     -12.5511      2.00000
      8     -12.5062      2.00000
      9      -9.6423      2.00000
     10      -9.5953      2.00000
     11      -9.4475      2.00000
     12      -9.4063      2.00000
     13      -9.3320      2.00000
     14      -9.2999      2.00000
     15      -5.3485      2.00000
     16      -5.1857      2.00000
     17      -2.4580      2.00000
     18      -2.3854      2.00000
     19      -2.2604      2.00000
     20      -2.2116      2.00000
     21      -2.0391      2.00000
     22      -1.9737      2.00000
     23      -0.1704      2.00000
     24      -0.0795      2.00000
     25       0.0175      2.00000
     26       0.0282      2.00000
     27       0.2690      2.00000
     28       0.5620      2.00000
     29       0.9207      2.00000
     30       1.0157      2.00000
     31       1.2499      2.00000
     32       1.2513      2.00000
     33       1.5243      2.00000
     34       1.6350      2.00000
     35       1.8220      2.00000
     36       1.8730      2.00000
     37       2.0936      2.00000
     38       2.2177      2.00000
     39       5.3879      0.00000
     40       5.7043      0.00000
     41       6.4605      0.00000
     42       6.6254      0.00000
     43       6.9771      0.00000
     44       6.9878      0.00000
     45       7.1340      0.00000
     46       7.3300      0.00000
     47       8.0910      0.00000
     48       8.6154      0.00000

 k-point     7 :       0.0000    0.3333    0.3333
  band No.  band energies     occupation 
      1     -40.9270      2.00000
      2     -40.9269      2.00000
      3     -40.7781      2.00000
      4     -40.7777      2.00000
      5     -40.7775      2.00000
      6     -40.7770      2.00000
      7     -12.5389      2.00000
      8     -12.4822      2.00000
      9      -9.6737      2.00000
     10      -9.5709      2.00000
     11      -9.4847      2.00000
     12      -9.4078      2.00000
     13      -9.3918      2.00000
     14      -9.3445      2.00000
     15      -5.2760      2.00000
     16      -5.1014      2.00000
     17      -2.3637      2.00000
     18      -2.3099      2.00000
     19      -2.2687      2.00000
     20      -2.1912      2.00000
     21      -2.0611      2.00000
     22      -1.9904      2.00000
     23      -0.1868      2.00000
     24      -0.0966      2.00000
     25      -0.0347      2.00000
     26       0.1431      2.00000
     27       0.3973      2.00000
     28       0.5494      2.00000
     29       0.9373      2.00000
     30       0.9556      2.00000
     31       1.1439      2.00000
     32       1.3560      2.00000
     33       1.6158      2.00000
     34       1.6298      2.00000
     35       1.8519      2.00000
     36       1.9763      2.00000
     37       2.0160      2.00000
     38       2.2088      2.00000
     39       4.9748      0.00000
     40       5.2577      0.00000
     41       6.3119      0.00000
     42       6.4606      0.00000
     43       6.7221      0.00000
     44       6.7643      0.00000
     45       6.9559      0.00000
     46       7.0624      0.00000
     47       8.1036      0.00000
     48       8.6317      0.00000

 k-point     8 :       0.3333    0.3333    0.3333
  band No.  band energies     occupation 
      1     -40.9269      2.00000
      2     -40.9269      2.00000
      3     -40.7780      2.00000
      4     -40.7776      2.00000
      5     -40.7775      2.00000
      6     -40.7772      2.00000
      7     -12.5235      2.00000
      8     -12.4950      2.00000
      9      -9.6674      2.00000
     10      -9.6163      2.00000
     11      -9.4899      2.00000
     12      -9.4137      2.00000
     13      -9.3734      2.00000
     14      -9.3290      2.00000
     15      -5.1906      2.00000
     16      -5.1028      2.00000
     17      -2.4203      2.00000
     18      -2.3412      2.00000
     19      -2.2222      2.00000
     20      -2.1861      2.00000
     21      -2.0160      2.00000
     22      -1.9995      2.00000
     23      -0.2964      2.00000
     24      -0.1850      2.00000
     25       0.0405      2.00000
     26       0.1299      2.00000
     27       0.4723      2.00000
     28       0.5638      2.00000
     29       0.7984      2.00000
     30       0.9390      2.00000
     31       1.1152      2.00000
     32       1.1989      2.00000
     33       1.6102      2.00000
     34       1.6828      2.00000
     35       1.7948      2.00000
     36       1.9040      2.00000
     37       2.0846      2.00000
     38       2.1597      2.00000
     39       5.3614      0.00000
     40       5.6285      0.00000
     41       6.3332      0.00000
     42       6.4728      0.00000
     43       6.8050      0.00000
     44       6.8560      0.00000
     45       7.0237      0.00000
     46       7.3391      0.00000
     47       8.0862      0.00000
     48       8.5278      0.00000


--------------------------------------------------------------------------------------------------------


 soft charge-density along one line, spin component           1
         0         1         2         3         4         5         6         7         8         9
 total charge-density along one line
 
 pseudopotential strength for first ion, spin component:           1
 30.064  37.510   0.000  -0.001  -0.000   0.000  -0.002  -0.000
 37.510  46.806   0.000  -0.002  -0.000   0.000  -0.003  -0.000
  0.000   0.000   6.587  -0.000   0.000  10.200  -0.000   0.000
 -0.001  -0.002  -0.000   6.586   0.000  -0.000  10.199   0.000
 -0.000  -0.000   0.000   0.000   6.586   0.000   0.000  10.199
  0.000   0.000  10.200  -0.000   0.000  15.813  -0.001   0.000
 -0.002  -0.003  -0.000  10.199   0.000  -0.001  15.811   0.000
 -0.000  -0.000   0.000   0.000  10.199   0.000   0.000  15.811
 total augmentation occupancy for first ion, spin component:           1
 10.900  -6.208  -0.020  -0.018   0.000  -0.002   0.008   0.000
 -6.208   3.976   0.027   0.008   0.000   0.000  -0.004   0.000
 -0.020   0.027   4.466  -0.174   0.000  -1.498   0.079   0.000
 -0.018   0.008  -0.174   4.265   0.000   0.079  -1.409   0.000
  0.000   0.000   0.000   0.000   4.369   0.000   0.000  -1.457
 -0.002   0.000  -1.498   0.079   0.000   0.543  -0.035   0.000
  0.008  -0.004   0.079  -1.409   0.000  -0.035   0.503   0.000
  0.000   0.000   0.000   0.000  -1.457   0.000   0.000   0.523


------------------------ aborting loop because EDIFF is reached ----------------------------------------


    CHARGE:  cpu time    0.0145: real time    0.0145
    FORLOC:  cpu time    0.0008: real time    0.0008
    FORNL :  cpu time    0.0344: real time    0.0346
    STRESS:  cpu time    0.1023: real time    0.1031
    FORCOR:  cpu time    0.0026: real time    0.0026
    FORHAR:  cpu time    0.0027: real time    0.0027
    MIXING:  cpu time    0.0005: real time    0.0005
    OFIELD:  cpu time    0.0001: real time    0.0003

  FORCE on cell =-STRESS in cart. coord.  units (eV):
  Direction    XX          YY          ZZ          XY          YZ          ZX
  --------------------------------------------------------------------------------------
  Alpha Z    68.57190    68.57190    68.57190
  Ewald    -939.05942  -875.54019  -915.77997     0.00000     0.00000     0.00000
  Hartree   204.80053   220.79112   225.95834    -0.00000    -0.00000     0.00000
  E(xc)    -277.43563  -277.49280  -277.36894    -0.00000    -0.00000    -0.00000
  Local    -616.84010  -689.83483  -660.53931    -0.00000    -0.00000    -0.00000
  n-local   602.54547   602.66515   600.56739    -0.11683     0.03393    -0.03035
  augment   -44.96768   -45.01393   -44.90262    -0.00000     0.00000    -0.00000
  Kinetic  1000.08588  1002.06269  1002.42230     0.22301    -0.13184     0.10878
  Fock        0.00000     0.00000     0.00000     0.00000     0.00000     0.00000
  -------------------------------------------------------------------------------------
  Total      -2.29905     6.20911    -1.07092     0.00000     0.00000     0.00000
  in kB     -12.80007    34.56956    -5.96239     0.00000     0.00000     0.00000
  external pressure =        5.27 kB  Pullay stress =        0.00 kB


 VOLUME and BASIS-vectors are now :
 -----------------------------------------------------------------------------
  energy-cutoff  :      420.00
  volume of cell :      287.77
      direct lattice vectors                 reciprocal lattice vectors
     7.667166225  0.000000000  0.000000000     0.130426284  0.000000000  0.000000000
     0.000000000  6.222203803  0.000000000     0.000000000  0.160714761  0.000000000
     0.000000000  0.000000000  6.032076935     0.000000000  0.000000000  0.165780379

  length of vectors
     7.667166225  6.222203803  6.032076935     0.130426284  0.160714761  0.165780379


 FORCES acting on ions
    electron-ion (+dipol)            ewald-force                    non-local-force                 convergence-correction
 -----------------------------------------------------------------------------------------------
   0.312E-09 0.200E+01 0.271E+01   0.719E-09 -.179E+01 -.258E+01   0.000E+00 -.635E+00 0.210E+00   0.279E-09 -.270E-02 0.503E-04
   0.572E-08 -.200E+01 0.271E+01   0.226E-08 0.179E+01 -.258E+01   0.000E+00 0.635E+00 0.210E+00   -.300E-09 0.270E-02 0.503E-04
   -.553E+02 0.322E+02 0.197E+02   0.572E+02 -.341E+02 -.204E+02   -.189E+01 0.226E+01 0.473E-01   0.180E-02 -.209E-02 0.217E-03
   0.553E+02 -.322E+02 0.197E+02   -.572E+02 0.341E+02 -.204E+02   0.189E+01 -.226E+01 0.473E-01   -.180E-02 0.209E-02 0.217E-03
   -.553E+02 -.322E+02 0.197E+02   0.572E+02 0.341E+02 -.204E+02   -.189E+01 -.226E+01 0.473E-01   0.180E-02 0.209E-02 0.217E-03
   0.553E+02 0.322E+02 0.197E+02   -.572E+02 -.341E+02 -.204E+02   0.189E+01 0.226E+01 0.473E-01   -.180E-02 -.209E-02 0.217E-03
   -.465E-09 -.659E+02 0.255E+02   -.191E-08 0.681E+02 -.263E+02   0.000E+00 -.202E+01 0.115E+01   0.355E-09 0.454E-02 -.261E-02
   0.164E-07 0.659E+02 0.255E+02   0.324E-08 -.681E+02 -.263E+02   0.000E+00 0.202E+01 0.115E+01   -.367E-09 -.454E-02 -.261E-02
   0.160E-09 0.164E+02 -.563E+02   -.387E-08 -.159E+02 0.591E+02   0.000E+00 -.106E+01 -.292E+01   0.354E-09 -.351E-02 0.112E-03
   0.158E-07 -.164E+02 -.563E+02   0.536E-08 0.159E+02 0.591E+02   0.000E+00 0.106E+01 -.292E+01   -.371E-09 0.351E-02 0.112E-03
   -.297E-09 -.237E+02 0.223E+01   -.277E-08 0.222E+02 -.202E+01   0.000E+00 0.200E+01 0.740E-02   0.182E-09 0.227E-02 0.401E-03
   0.123E-07 0.237E+02 0.223E+01   0.412E-08 -.222E+02 -.202E+01   0.000E+00 -.200E+01 0.740E-02   -.182E-09 -.227E-02 0.401E-03
   0.233E+00 -.164E+01 -.646E+01   -.777E-01 0.150E+01 0.625E+01   -.153E+00 0.607E+00 0.394E+00   0.372E-03 -.153E-02 -.379E-03
   -.233E+00 0.164E+01 -.646E+01   0.777E-01 -.150E+01 0.625E+01   0.153E+00 -.607E+00 0.394E+00   -.372E-03 0.153E-02 -.379E-03
   0.233E+00 0.164E+01 -.646E+01   -.777E-01 -.150E+01 0.625E+01   -.153E+00 -.607E+00 0.394E+00   0.372E-03 0.153E-02 -.379E-03
   -.233E+00 -.164E+01 -.646E+01   0.777E-01 0.150E+01 0.625E+01   0.153E+00 0.607E+00 0.394E+00   -.372E-03 -.153E-02 -.379E-03
 -----------------------------------------------------------------------------------------------
   0.575E-07 -.112E-06 0.133E+01   -.142E-13 0.149E-13 0.169E-13   0.000E+00 0.555E-15 -.133E+01   -.295E-10 0.501E-10 -.474E-02
 
 
 POSITION                                       TOTAL-FORCE (eV/Angst)
 -----------------------------------------------------------------------------------
      0.00000      2.05969      1.79836         0.000000     -0.434791      0.341091
      3.83358      4.16251      4.81440         0.000000      0.434791      0.341091
      1.67289      1.03517      1.25572         0.024606      0.369478     -0.594992
      2.16070      5.18703      4.27175        -0.024606     -0.369478     -0.594992
      5.50647      5.18703      4.27175         0.024606     -0.369478     -0.594992
      5.99428      1.03517      1.25572        -0.024606      0.369478     -0.594992
      0.00000      3.90135      0.98801         0.000000      0.175121      0.322417
      3.83358      2.32085      4.00404         0.000000     -0.175121      0.322417
      0.00000      2.08429      3.84578         0.000000     -0.636471     -0.059513
      3.83358      4.13791      0.82974         0.000000      0.636471     -0.059513
      0.00000      4.10001      4.65500         0.000000      0.531875      0.215713
      3.83358      2.12220      1.63896         0.000000     -0.531875      0.215713
      1.93524      1.12074      4.83856         0.003020      0.467202      0.185138
      1.89834      5.10146      1.82252        -0.003020     -0.467202      0.185138
      5.76883      5.10146      1.82252         0.003020     -0.467202      0.185138
      5.73192      1.12074      4.83856        -0.003020      0.467202      0.185138
 -----------------------------------------------------------------------------------
    total drift:                                0.000000     -0.000000      0.003037


--------------------------------------------------------------------------------------------------------



  FREE ENERGIE OF THE ION-ELECTRON SYSTEM (eV)
  ---------------------------------------------------
  free  energy   TOTEN  =       -76.97999490 eV

  energy  without entropy=      -76.97999490  energy(sigma->0) =      -76.97999490
 


--------------------------------------------------------------------------------------------------------


    POTLOK:  cpu time    0.0056: real time    0.0057


--------------------------------------------------------------------------------------------------------


     LOOP+:  cpu time    2.6647: real time    2.6931
    4ORBIT:  cpu time    0.0000: real time    0.0000
 BZINTS: Fermi energy:  2.383925; 76.000000 electrons
         Band energy:-668.472606;  BLOECHL correction:  0.000000

 total amount of memory used by VASP MPI-rank0    33581. kBytes
=======================================================================

   base      :      30000. kBytes
   nonlr-proj:       1216. kBytes
   fftplans  :        656. kBytes
   grid      :       1147. kBytes
   one-center:          3. kBytes
   wavefun   :        559. kBytes
 
  
  
 General timing and accounting informations for this job:
 ========================================================
  
                  Total CPU time used (sec):        3.574
                            User time (sec):        3.189
                          System time (sec):        0.386
                         Elapsed time (sec):        4.702
  
                   Maximum memory used (kb):      140464.
                   Average memory used (kb):           0.
  
                          Minor page faults:        20545
                          Major page faults:           87
                 Voluntary context switches:         1854
