unknown system                          
           1
     7.667166    0.000000    0.000000
     0.000000    6.222204    0.000000
     0.000000    0.000000    6.032077
   P    S    Li
   2   8   6
Direct configuration=     1
   0.00000000  0.33102315  0.29813335
   0.50000000  0.66897685  0.79813335
   0.21818844  0.16636776  0.20817292
   0.28181156  0.83363224  0.70817292
   0.71818844  0.83363224  0.70817292
   0.78181156  0.16636776  0.20817292
   0.00000000  0.62700465  0.16379203
   0.50000000  0.37299535  0.66379203
   0.00000000  0.33497644  0.63755495
   0.50000000  0.66502356  0.13755495
   0.00000000  0.65893148  0.77170815
   0.50000000  0.34106852  0.27170815
   0.25240680  0.18011980  0.80213765
   0.24759320  0.81988020  0.30213765
   0.75240680  0.81988020  0.30213765
   0.74759320  0.18011980  0.80213765
