  16  16   0   0
  0.2031839E+02  0.7869268E-09  0.5611374E-09  0.7362169E-09  0.5000000E-15
  1.000000000000000E-004
  CAR 
 unknown system                          
     11.35318233    -43.83047706  301      2.75372874      1.00000000
    -43.830  0.0000E+00  0.0000E+00
    -43.647  0.0000E+00  0.0000E+00
    -43.463  0.0000E+00  0.0000E+00
    -43.279  0.0000E+00  0.0000E+00
    -43.095  0.0000E+00  0.0000E+00
    -42.911  0.0000E+00  0.0000E+00
    -42.727  0.0000E+00  0.0000E+00
    -42.543  0.0000E+00  0.0000E+00
    -42.359  0.0000E+00  0.0000E+00
    -42.175  0.0000E+00  0.0000E+00
    -41.991  0.0000E+00  0.0000E+00
    -41.807  0.0000E+00  0.0000E+00
    -41.623  0.0000E+00  0.0000E+00
    -41.439  0.0000E+00  0.0000E+00
    -41.255  0.0000E+00  0.4000E-01
    -41.071  0.0000E+00  0.4000E-01
    -40.887  0.0000E+00  0.4000E-01
    -40.703  0.0000E+00  0.1200E+00
    -40.519  0.0000E+00  0.1200E+00
    -40.336  0.0000E+00  0.1200E+00
    -40.152  0.0000E+00  0.1200E+00
    -39.968  0.0000E+00  0.1200E+00
    -39.784  0.0000E+00  0.1200E+00
    -39.600  0.0000E+00  0.1200E+00
    -39.416  0.0000E+00  0.1200E+00
    -39.232  0.0000E+00  0.1200E+00
    -39.048  0.0000E+00  0.1200E+00
    -38.864  0.0000E+00  0.1200E+00
    -38.680  0.0000E+00  0.1200E+00
    -38.496  0.0000E+00  0.1200E+00
    -38.312  0.0000E+00  0.1200E+00
    -38.128  0.0000E+00  0.1200E+00
    -37.944  0.0000E+00  0.1200E+00
    -37.760  0.0000E+00  0.1200E+00
    -37.576  0.0000E+00  0.1200E+00
    -37.392  0.0000E+00  0.1200E+00
    -37.208  0.0000E+00  0.1200E+00
    -37.024  0.0000E+00  0.1200E+00
    -36.841  0.0000E+00  0.1200E+00
    -36.657  0.0000E+00  0.1200E+00
    -36.473  0.0000E+00  0.1200E+00
    -36.289  0.0000E+00  0.1200E+00
    -36.105  0.0000E+00  0.1200E+00
    -35.921  0.0000E+00  0.1200E+00
    -35.737  0.0000E+00  0.1200E+00
    -35.553  0.0000E+00  0.1200E+00
    -35.369  0.0000E+00  0.1200E+00
    -35.185  0.0000E+00  0.1200E+00
    -35.001  0.0000E+00  0.1200E+00
    -34.817  0.0000E+00  0.1200E+00
    -34.633  0.0000E+00  0.1200E+00
    -34.449  0.0000E+00  0.1200E+00
    -34.265  0.0000E+00  0.1200E+00
    -34.081  0.0000E+00  0.1200E+00
    -33.897  0.0000E+00  0.1200E+00
    -33.713  0.0000E+00  0.1200E+00
    -33.530  0.0000E+00  0.1200E+00
    -33.346  0.0000E+00  0.1200E+00
    -33.162  0.0000E+00  0.1200E+00
    -32.978  0.0000E+00  0.1200E+00
    -32.794  0.0000E+00  0.1200E+00
    -32.610  0.0000E+00  0.1200E+00
    -32.426  0.0000E+00  0.1200E+00
    -32.242  0.0000E+00  0.1200E+00
    -32.058  0.0000E+00  0.1200E+00
    -31.874  0.0000E+00  0.1200E+00
    -31.690  0.0000E+00  0.1200E+00
    -31.506  0.0000E+00  0.1200E+00
    -31.322  0.0000E+00  0.1200E+00
    -31.138  0.0000E+00  0.1200E+00
    -30.954  0.0000E+00  0.1200E+00
    -30.770  0.0000E+00  0.1200E+00
    -30.586  0.0000E+00  0.1200E+00
    -30.402  0.0000E+00  0.1200E+00
    -30.219  0.0000E+00  0.1200E+00
    -30.035  0.0000E+00  0.1200E+00
    -29.851  0.0000E+00  0.1200E+00
    -29.667  0.0000E+00  0.1200E+00
    -29.483  0.0000E+00  0.1200E+00
    -29.299  0.0000E+00  0.1200E+00
    -29.115  0.0000E+00  0.1200E+00
    -28.931  0.0000E+00  0.1200E+00
    -28.747  0.0000E+00  0.1200E+00
    -28.563  0.0000E+00  0.1200E+00
    -28.379  0.0000E+00  0.1200E+00
    -28.195  0.0000E+00  0.1200E+00
    -28.011  0.0000E+00  0.1200E+00
    -27.827  0.0000E+00  0.1200E+00
    -27.643  0.0000E+00  0.1200E+00
    -27.459  0.0000E+00  0.1200E+00
    -27.275  0.0000E+00  0.1200E+00
    -27.091  0.0000E+00  0.1200E+00
    -26.907  0.0000E+00  0.1200E+00
    -26.724  0.0000E+00  0.1200E+00
    -26.540  0.0000E+00  0.1200E+00
    -26.356  0.0000E+00  0.1200E+00
    -26.172  0.0000E+00  0.1200E+00
    -25.988  0.0000E+00  0.1200E+00
    -25.804  0.0000E+00  0.1200E+00
    -25.620  0.0000E+00  0.1200E+00
    -25.436  0.0000E+00  0.1200E+00
    -25.252  0.0000E+00  0.1200E+00
    -25.068  0.0000E+00  0.1200E+00
    -24.884  0.0000E+00  0.1200E+00
    -24.700  0.0000E+00  0.1200E+00
    -24.516  0.0000E+00  0.1200E+00
    -24.332  0.0000E+00  0.1200E+00
    -24.148  0.0000E+00  0.1200E+00
    -23.964  0.0000E+00  0.1200E+00
    -23.780  0.0000E+00  0.1200E+00
    -23.596  0.0000E+00  0.1200E+00
    -23.413  0.0000E+00  0.1200E+00
    -23.229  0.0000E+00  0.1200E+00
    -23.045  0.0000E+00  0.1200E+00
    -22.861  0.0000E+00  0.1200E+00
    -22.677  0.0000E+00  0.1200E+00
    -22.493  0.0000E+00  0.1200E+00
    -22.309  0.0000E+00  0.1200E+00
    -22.125  0.0000E+00  0.1200E+00
    -21.941  0.0000E+00  0.1200E+00
    -21.757  0.0000E+00  0.1200E+00
    -21.573  0.0000E+00  0.1200E+00
    -21.389  0.0000E+00  0.1200E+00
    -21.205  0.0000E+00  0.1200E+00
    -21.021  0.0000E+00  0.1200E+00
    -20.837  0.0000E+00  0.1200E+00
    -20.653  0.0000E+00  0.1200E+00
    -20.469  0.0000E+00  0.1200E+00
    -20.285  0.0000E+00  0.1200E+00
    -20.102  0.0000E+00  0.1200E+00
    -19.918  0.0000E+00  0.1200E+00
    -19.734  0.0000E+00  0.1200E+00
    -19.550  0.0000E+00  0.1200E+00
    -19.366  0.0000E+00  0.1200E+00
    -19.182  0.0000E+00  0.1200E+00
    -18.998  0.0000E+00  0.1200E+00
    -18.814  0.0000E+00  0.1200E+00
    -18.630  0.0000E+00  0.1200E+00
    -18.446  0.0000E+00  0.1200E+00
    -18.262  0.0000E+00  0.1200E+00
    -18.078  0.0000E+00  0.1200E+00
    -17.894  0.0000E+00  0.1200E+00
    -17.710  0.0000E+00  0.1200E+00
    -17.526  0.0000E+00  0.1200E+00
    -17.342  0.0000E+00  0.1200E+00
    -17.158  0.0000E+00  0.1200E+00
    -16.974  0.0000E+00  0.1200E+00
    -16.790  0.0000E+00  0.1200E+00
    -16.607  0.0000E+00  0.1200E+00
    -16.423  0.0000E+00  0.1200E+00
    -16.239  0.0000E+00  0.1200E+00
    -16.055  0.0000E+00  0.1200E+00
    -15.871  0.0000E+00  0.1200E+00
    -15.687  0.0000E+00  0.1200E+00
    -15.503  0.0000E+00  0.1200E+00
    -15.319  0.0000E+00  0.1200E+00
    -15.135  0.0000E+00  0.1200E+00
    -14.951  0.0000E+00  0.1200E+00
    -14.767  0.0000E+00  0.1200E+00
    -14.583  0.0000E+00  0.1200E+00
    -14.399  0.0000E+00  0.1200E+00
    -14.215  0.0000E+00  0.1200E+00
    -14.031  0.0000E+00  0.1200E+00
    -13.847  0.0000E+00  0.1200E+00
    -13.663  0.0000E+00  0.1200E+00
    -13.479  0.0000E+00  0.1200E+00
    -13.296  0.0000E+00  0.1200E+00
    -13.112  0.0000E+00  0.1200E+00
    -12.928  0.0000E+00  0.1200E+00
    -12.744  0.0000E+00  0.1200E+00
    -12.560  0.0000E+00  0.1200E+00
    -12.376  0.1927E+00  0.1576E+00
    -12.192  0.0000E+00  0.1600E+00
    -12.008  0.0000E+00  0.1600E+00
    -11.824  0.0000E+00  0.1600E+00
    -11.640  0.0000E+00  0.1600E+00
    -11.456  0.0000E+00  0.1600E+00
    -11.272  0.0000E+00  0.1600E+00
    -11.088  0.0000E+00  0.1600E+00
    -10.904  0.0000E+00  0.1600E+00
    -10.720  0.0000E+00  0.1600E+00
    -10.536  0.0000E+00  0.1600E+00
    -10.352  0.0000E+00  0.1600E+00
    -10.168  0.0000E+00  0.1600E+00
     -9.984  0.0000E+00  0.1600E+00
     -9.801  0.0000E+00  0.1600E+00
     -9.617  0.3355E-01  0.1604E+00
     -9.433  0.0000E+00  0.2000E+00
     -9.249  0.7903E-01  0.2385E+00
     -9.065  0.0000E+00  0.2800E+00
     -8.881  0.0000E+00  0.2800E+00
     -8.697  0.0000E+00  0.2800E+00
     -8.513  0.0000E+00  0.2800E+00
     -8.329  0.0000E+00  0.2800E+00
     -8.145  0.0000E+00  0.2800E+00
     -7.961  0.0000E+00  0.2800E+00
     -7.777  0.0000E+00  0.2800E+00
     -7.593  0.0000E+00  0.2800E+00
     -7.409  0.0000E+00  0.2800E+00
     -7.225  0.0000E+00  0.2800E+00
     -7.041  0.0000E+00  0.2800E+00
     -6.857  0.0000E+00  0.2800E+00
     -6.673  0.0000E+00  0.2800E+00
     -6.490  0.0000E+00  0.2800E+00
     -6.306  0.0000E+00  0.2800E+00
     -6.122  0.0000E+00  0.2800E+00
     -5.938  0.0000E+00  0.2800E+00
     -5.754  0.0000E+00  0.2800E+00
     -5.570  0.0000E+00  0.2800E+00
     -5.386  0.9133E-02  0.2804E+00
     -5.202  0.3257E-01  0.2842E+00
     -5.018  0.5150E-01  0.2940E+00
     -4.834  0.1111E+00  0.3180E+00
     -4.650  0.0000E+00  0.3200E+00
     -4.466  0.0000E+00  0.3200E+00
     -4.282  0.0000E+00  0.3200E+00
     -4.098  0.0000E+00  0.3200E+00
     -3.914  0.0000E+00  0.3200E+00
     -3.730  0.0000E+00  0.3200E+00
     -3.546  0.0000E+00  0.3200E+00
     -3.362  0.0000E+00  0.3200E+00
     -3.179  0.0000E+00  0.3200E+00
     -2.995  0.0000E+00  0.3200E+00
     -2.811  0.0000E+00  0.3200E+00
     -2.627  0.0000E+00  0.3200E+00
     -2.443  0.1076E+00  0.3298E+00
     -2.259  0.5926E-01  0.3543E+00
     -2.075  0.1269E+00  0.3874E+00
     -1.891  0.0000E+00  0.4000E+00
     -1.707  0.4060E+00  0.4326E+00
     -1.523  0.0000E+00  0.4400E+00
     -1.339  0.0000E+00  0.4400E+00
     -1.155  0.0000E+00  0.4400E+00
     -0.971  0.0000E+00  0.4400E+00
     -0.787  0.0000E+00  0.4400E+00
     -0.603  0.0000E+00  0.4400E+00
     -0.419  0.2885E-01  0.4437E+00
     -0.235  0.1117E+00  0.4569E+00
     -0.051  0.7702E-01  0.4784E+00
      0.133  0.1008E+00  0.4939E+00
      0.316  0.7846E-01  0.5158E+00
      0.500  0.5374E-01  0.5313E+00
      0.684  0.0000E+00  0.5400E+00
      0.868  0.4684E-01  0.5677E+00
      1.052  0.7696E-01  0.5793E+00
      1.236  0.6053E-01  0.5972E+00
      1.420  0.1040E+00  0.6236E+00
      1.604  0.7861E-01  0.6413E+00
      1.788  0.1431E+00  0.6654E+00
      1.972  0.1999E+00  0.6987E+00
      2.156  0.6908E-01  0.7309E+00
      2.340  0.3156E-01  0.7503E+00
      2.524  0.2438E-01  0.7573E+00
      2.708  0.0000E+00  0.7600E+00
      2.892  0.0000E+00  0.7600E+00
      3.076  0.0000E+00  0.7600E+00
      3.260  0.0000E+00  0.7600E+00
      3.444  0.0000E+00  0.7600E+00
      3.627  0.0000E+00  0.7600E+00
      3.811  0.0000E+00  0.7600E+00
      3.995  0.0000E+00  0.7600E+00
      4.179  0.0000E+00  0.7600E+00
      4.363  0.0000E+00  0.7600E+00
      4.547  0.0000E+00  0.7600E+00
      4.731  0.0000E+00  0.7600E+00
      4.915  0.0000E+00  0.7600E+00
      5.099  0.9213E-02  0.7615E+00
      5.283  0.1857E-01  0.7641E+00
      5.467  0.3172E-01  0.7693E+00
      5.651  0.4890E-01  0.7767E+00
      5.835  0.5379E-01  0.7887E+00
      6.019  0.3370E-01  0.7977E+00
      6.203  0.3164E-01  0.8053E+00
      6.387  0.6175E-01  0.8138E+00
      6.571  0.9988E-01  0.8314E+00
      6.755  0.5874E-01  0.8470E+00
      6.938  0.6487E-01  0.8603E+00
      7.122  0.1075E+00  0.8729E+00
      7.306  0.1589E+00  0.8875E+00
      7.490  0.5569E-01  0.9154E+00
      7.674  0.6720E-02  0.9196E+00
      7.858  0.0000E+00  0.9200E+00
      8.042  0.0000E+00  0.9200E+00
      8.226  0.4064E-01  0.9288E+00
      8.410  0.1284E+00  0.9386E+00
      8.594  0.3615E-01  0.9547E+00
      8.778  0.1185E-01  0.9590E+00
      8.962  0.0000E+00  0.9600E+00
      9.146  0.0000E+00  0.9600E+00
      9.330  0.0000E+00  0.9600E+00
      9.514  0.0000E+00  0.9600E+00
      9.698  0.0000E+00  0.9600E+00
      9.882  0.0000E+00  0.9600E+00
     10.066  0.0000E+00  0.9600E+00
     10.250  0.0000E+00  0.9600E+00
     10.433  0.0000E+00  0.9600E+00
     10.617  0.0000E+00  0.9600E+00
     10.801  0.0000E+00  0.9600E+00
     10.985  0.0000E+00  0.9600E+00
     11.169  0.0000E+00  0.9600E+00
     11.353  0.0000E+00  0.9600E+00
