       N       E                     dE             d eps       ncg     rms          rms(c)
DAV:   1     0.520656718935E+03    0.52066E+03   -0.28202E+04   768   0.128E+03
DAV:   2     0.288461474930E+01   -0.51777E+03   -0.49340E+03   904   0.305E+02
DAV:   3    -0.650835711560E+02   -0.67968E+02   -0.67041E+02  1064   0.101E+02
DAV:   4    -0.734135364293E+02   -0.83300E+01   -0.82724E+01  1440   0.341E+01
DAV:   5    -0.746525204120E+02   -0.12390E+01   -0.12386E+01  1120   0.896E+00    0.238E+01
RMM:   6    -0.719357148934E+02    0.27168E+01   -0.79223E+00   832   0.672E+00    0.152E+01
RMM:   7    -0.713417347281E+02    0.59398E+00   -0.47692E+00   841   0.534E+00    0.380E+00
RMM:   8    -0.712125915890E+02    0.12914E+00   -0.31871E-01   980   0.189E+00    0.654E-01
RMM:   9    -0.712084357551E+02    0.41558E-02   -0.63194E-02  1055   0.744E-01    0.292E-01
RMM:  10    -0.712095678687E+02   -0.11321E-02   -0.15665E-02  1142   0.339E-01    0.166E-01
RMM:  11    -0.712104544716E+02   -0.88660E-03   -0.63693E-03  1111   0.217E-01    0.481E-02
RMM:  12    -0.712107479833E+02   -0.29351E-03   -0.34062E-03  1056   0.136E-01    0.277E-02
RMM:  13    -0.712108867655E+02   -0.13878E-03   -0.14933E-03   880   0.939E-02    0.148E-02
RMM:  14    -0.712109454102E+02   -0.58645E-04   -0.65705E-04   849   0.709E-02    0.742E-03
RMM:  15    -0.712109707119E+02   -0.25302E-04   -0.30679E-04   723   0.569E-02    0.349E-03
RMM:  16    -0.712109816734E+02   -0.10961E-04   -0.14625E-04   657   0.498E-02
   1 F= -.71210982E+02 E0= -.71210982E+02  d E =-.712110E+02
       N       E                     dE             d eps       ncg     rms          rms(c)
DAV:   1    -0.715161030980E+02   -0.30513E+00   -0.25154E+02   768   0.799E+01    0.150E+01
RMM:   2    -0.725352660751E+02   -0.10192E+01   -0.13891E+01   975   0.157E+01    0.341E+00
RMM:   3    -0.726090059070E+02   -0.73740E-01   -0.31621E+00  1224   0.565E+00    0.337E+00
RMM:   4    -0.726192073092E+02   -0.10201E-01   -0.73489E-01  1174   0.273E+00    0.144E+00
RMM:   5    -0.726240618531E+02   -0.48545E-02   -0.17725E-01  1256   0.149E+00    0.347E-01
RMM:   6    -0.726286134870E+02   -0.45516E-02   -0.61786E-02  1271   0.846E-01    0.132E-01
RMM:   7    -0.726306172558E+02   -0.20038E-02   -0.22509E-02  1281   0.500E-01    0.764E-02
RMM:   8    -0.726315303648E+02   -0.91311E-03   -0.95456E-03  1305   0.318E-01    0.281E-02
RMM:   9    -0.726318719626E+02   -0.34160E-03   -0.36409E-03  1242   0.196E-01    0.171E-02
RMM:  10    -0.726320292260E+02   -0.15726E-03   -0.16917E-03  1230   0.132E-01    0.973E-03
RMM:  11    -0.726320913699E+02   -0.62144E-04   -0.65920E-04  1009   0.887E-02    0.461E-03
RMM:  12    -0.726321122157E+02   -0.20846E-04   -0.23208E-04   816   0.672E-02    0.390E-03
RMM:  13    -0.726321175156E+02   -0.52998E-05   -0.79976E-05   661   0.579E-02
   2 F= -.72632118E+02 E0= -.72632118E+02  d E =-.142114E+01
       N       E                     dE             d eps       ncg     rms          rms(c)
DAV:   1    -0.726361920861E+02   -0.40799E-02   -0.98156E-01   912   0.496E+00    0.773E-01
RMM:   2    -0.726390575617E+02   -0.28655E-02   -0.44456E-02   990   0.908E-01    0.166E-01
RMM:   3    -0.726384216506E+02    0.63591E-03   -0.39627E-03  1194   0.269E-01    0.129E-01
RMM:   4    -0.726383084249E+02    0.11323E-03   -0.11838E-03  1064   0.116E-01    0.532E-02
RMM:   5    -0.726383364934E+02   -0.28069E-04   -0.41523E-04  1101   0.688E-02    0.258E-02
RMM:   6    -0.726383327037E+02    0.37897E-05    0.39311E-06   527   0.468E-02
   3 F= -.72638333E+02 E0= -.72638333E+02  d E =-.142735E+01
       N       E                     dE             d eps       ncg     rms          rms(c)
DAV:   1    -0.726036504763E+02    0.34686E-01   -0.15398E+02   768   0.628E+01    0.765E+00
RMM:   2    -0.731121185282E+02   -0.50847E+00   -0.74379E+00   974   0.114E+01    0.302E+00
RMM:   3    -0.731476059664E+02   -0.35487E-01   -0.17939E+00  1250   0.435E+00    0.268E+00
RMM:   4    -0.731369383848E+02    0.10668E-01   -0.39037E-01  1127   0.215E+00    0.728E-01
RMM:   5    -0.731432481229E+02   -0.63097E-02   -0.10165E-01  1288   0.113E+00    0.236E-01
RMM:   6    -0.731456436554E+02   -0.23955E-02   -0.36722E-02  1243   0.642E-01    0.108E-01
RMM:   7    -0.731466392192E+02   -0.99556E-03   -0.14650E-02  1260   0.400E-01    0.841E-02
RMM:   8    -0.731472111033E+02   -0.57188E-03   -0.65610E-03  1268   0.255E-01    0.192E-02
RMM:   9    -0.731474734688E+02   -0.26237E-03   -0.27497E-03  1218   0.162E-01    0.162E-02
RMM:  10    -0.731475793245E+02   -0.10586E-03   -0.11535E-03  1150   0.107E-01    0.933E-03
RMM:  11    -0.731476182276E+02   -0.38903E-04   -0.41533E-04   967   0.742E-02    0.613E-03
RMM:  12    -0.731476217701E+02   -0.35424E-05   -0.65713E-05   640   0.579E-02
   4 F= -.73147622E+02 E0= -.73147622E+02  d E =-.509289E+00
       N       E                     dE             d eps       ncg     rms          rms(c)
DAV:   1    -0.731476739446E+02   -0.55717E-04   -0.57938E-04  1032   0.654E-02    0.115E-02
RMM:   2    -0.731476743527E+02   -0.40806E-06   -0.10213E-05   463   0.139E-02
   5 F= -.73147674E+02 E0= -.73147674E+02  d E =-.509342E+00
       N       E                     dE             d eps       ncg     rms          rms(c)
DAV:   1    -0.733097392244E+02   -0.16207E+00   -0.10250E+02   768   0.520E+01    0.540E+00
RMM:   2    -0.734339965402E+02   -0.12426E+00   -0.32324E+00  1003   0.792E+00    0.165E+00
RMM:   3    -0.734445390571E+02   -0.10543E-01   -0.70947E-01  1202   0.292E+00    0.832E-01
RMM:   4    -0.734512872697E+02   -0.67482E-02   -0.18368E-01  1255   0.145E+00    0.393E-01
RMM:   5    -0.734552802796E+02   -0.39930E-02   -0.55402E-02  1274   0.800E-01    0.171E-01
RMM:   6    -0.734571941788E+02   -0.19139E-02   -0.21832E-02  1311   0.499E-01    0.732E-02
RMM:   7    -0.734579343965E+02   -0.74022E-03   -0.78404E-03  1266   0.297E-01    0.301E-02
RMM:   8    -0.734582423875E+02   -0.30799E-03   -0.33334E-03  1270   0.192E-01    0.129E-02
RMM:   9    -0.734583930470E+02   -0.15066E-03   -0.15765E-03  1204   0.128E-01    0.109E-02
RMM:  10    -0.734584497017E+02   -0.56655E-04   -0.60044E-04  1053   0.886E-02    0.749E-03
RMM:  11    -0.734584663469E+02   -0.16645E-04   -0.18770E-04   792   0.673E-02
   6 F= -.73458466E+02 E0= -.73458466E+02  d E =-.310792E+00
       N       E                     dE             d eps       ncg     rms          rms(c)
DAV:   1    -0.734736336863E+02   -0.15184E-01   -0.21918E+01   768   0.241E+01    0.232E+00
RMM:   2    -0.734935637530E+02   -0.19930E-01   -0.58829E-01  1007   0.356E+00    0.816E-01
RMM:   3    -0.734907095050E+02    0.28542E-02   -0.10341E-01  1208   0.125E+00    0.406E-01
RMM:   4    -0.734912073976E+02   -0.49789E-03   -0.31695E-02  1259   0.576E-01    0.171E-01
RMM:   5    -0.734921539555E+02   -0.94656E-03   -0.12293E-02  1282   0.347E-01    0.749E-02
RMM:   6    -0.734926021796E+02   -0.44822E-03   -0.49991E-03  1286   0.224E-01    0.350E-02
RMM:   7    -0.734927890905E+02   -0.18691E-03   -0.19520E-03  1228   0.142E-01    0.135E-02
RMM:   8    -0.734928654171E+02   -0.76327E-04   -0.82939E-04  1136   0.972E-02    0.555E-03
RMM:   9    -0.734928937442E+02   -0.28327E-04   -0.30794E-04   908   0.701E-02    0.311E-03
RMM:  10    -0.734928945238E+02   -0.77962E-06   -0.32287E-05   598   0.573E-02
   7 F= -.73492895E+02 E0= -.73492895E+02  d E =-.345220E+00
       N       E                     dE             d eps       ncg     rms          rms(c)
DAV:   1    -0.733650386324E+02    0.12786E+00   -0.12678E+02   768   0.586E+01    0.375E+00
RMM:   2    -0.736621331554E+02   -0.29709E+00   -0.38700E+00  1023   0.846E+00    0.121E+00
RMM:   3    -0.737370994614E+02   -0.74966E-01   -0.10369E+00  1226   0.317E+00    0.894E-01
RMM:   4    -0.737443596362E+02   -0.72602E-02   -0.22192E-01  1212   0.160E+00    0.383E-01
RMM:   5    -0.737476879036E+02   -0.33283E-02   -0.54734E-02  1274   0.852E-01    0.128E-01
RMM:   6    -0.737494220707E+02   -0.17342E-02   -0.20319E-02  1311   0.505E-01    0.392E-02
RMM:   7    -0.737501190251E+02   -0.69695E-03   -0.74703E-03  1280   0.299E-01    0.246E-02
RMM:   8    -0.737504150050E+02   -0.29598E-03   -0.30933E-03  1317   0.194E-01    0.123E-02
RMM:   9    -0.737505422895E+02   -0.12728E-03   -0.13377E-03  1221   0.124E-01    0.606E-03
RMM:  10    -0.737505930137E+02   -0.50724E-04   -0.53558E-04  1014   0.857E-02    0.328E-03
RMM:  11    -0.737506069793E+02   -0.13966E-04   -0.15807E-04   725   0.656E-02
   8 F= -.73750607E+02 E0= -.73750607E+02  d E =-.257712E+00
       N       E                     dE             d eps       ncg     rms          rms(c)
DAV:   1    -0.736875924541E+02    0.63001E-01   -0.44580E+01   768   0.347E+01    0.201E+00
RMM:   2    -0.737719647963E+02   -0.84372E-01   -0.11127E+00  1023   0.485E+00    0.687E-01
RMM:   3    -0.737826415999E+02   -0.10677E-01   -0.21234E-01  1223   0.168E+00    0.463E-01
RMM:   4    -0.737834822177E+02   -0.84062E-03   -0.56271E-02  1217   0.830E-01    0.163E-01
RMM:   5    -0.737849537166E+02   -0.14715E-02   -0.18347E-02  1286   0.463E-01    0.728E-02
RMM:   6    -0.737855713295E+02   -0.61761E-03   -0.70080E-03  1316   0.280E-01    0.232E-02
RMM:   7    -0.737858177133E+02   -0.24638E-03   -0.26130E-03  1270   0.169E-01    0.141E-02
RMM:   8    -0.737859173768E+02   -0.99663E-04   -0.10474E-03  1210   0.110E-01    0.796E-03
RMM:   9    -0.737859466474E+02   -0.29271E-04   -0.31152E-04   899   0.731E-02    0.226E-03
RMM:  10    -0.737859517845E+02   -0.51371E-05   -0.76999E-05   658   0.601E-02
   9 F= -.73785952E+02 E0= -.73785952E+02  d E =-.293057E+00
       N       E                     dE             d eps       ncg     rms          rms(c)
DAV:   1    -0.737801955890E+02    0.57511E-02   -0.57756E+01   768   0.389E+01    0.356E+00
RMM:   2    -0.738603197444E+02   -0.80124E-01   -0.19703E+00  1005   0.604E+00    0.164E+00
RMM:   3    -0.738739119671E+02   -0.13592E-01   -0.52075E-01  1215   0.244E+00    0.993E-01
RMM:   4    -0.738732845475E+02    0.62742E-03   -0.10083E-01  1232   0.113E+00    0.382E-01
RMM:   5    -0.738748404531E+02   -0.15559E-02   -0.30466E-02  1294   0.606E-01    0.158E-01
RMM:   6    -0.738756795535E+02   -0.83910E-03   -0.10831E-02  1290   0.345E-01    0.533E-02
RMM:   7    -0.738760488165E+02   -0.36926E-03   -0.40592E-03  1302   0.207E-01    0.228E-02
RMM:   8    -0.738762047133E+02   -0.15590E-03   -0.16605E-03  1205   0.130E-01    0.897E-03
RMM:   9    -0.738762617464E+02   -0.57033E-04   -0.61685E-04  1081   0.862E-02    0.380E-03
RMM:  10    -0.738762744437E+02   -0.12697E-04   -0.14944E-04   736   0.635E-02
  10 F= -.73876274E+02 E0= -.73876274E+02  d E =-.903227E-01
       N       E                     dE             d eps       ncg     rms          rms(c)
DAV:   1    -0.738771597832E+02   -0.89804E-03   -0.59954E-01   952   0.394E+00    0.400E-01
RMM:   2    -0.738775643891E+02   -0.40461E-03   -0.16385E-02   989   0.575E-01    0.150E-01
RMM:   3    -0.738773313852E+02    0.23300E-03   -0.22412E-03  1153   0.194E-01    0.719E-02
RMM:   4    -0.738773102814E+02    0.21104E-04   -0.53187E-04  1100   0.764E-02    0.297E-02
RMM:   5    -0.738773054061E+02    0.48753E-05   -0.31089E-05   556   0.460E-02
  11 F= -.73877305E+02 E0= -.73877305E+02  d E =-.913536E-01
       N       E                     dE             d eps       ncg     rms          rms(c)
DAV:   1    -0.738646849425E+02    0.12625E-01   -0.53081E+01   768   0.364E+01    0.241E+00
RMM:   2    -0.740034384609E+02   -0.13875E+00   -0.17575E+00   978   0.574E+00    0.738E-01
RMM:   3    -0.740213734705E+02   -0.17935E-01   -0.36106E-01  1245   0.211E+00    0.611E-01
RMM:   4    -0.740230496336E+02   -0.16762E-02   -0.81095E-02  1220   0.941E-01    0.307E-01
RMM:   5    -0.740243181726E+02   -0.12685E-02   -0.23920E-02  1244   0.515E-01    0.132E-01
RMM:   6    -0.740250893233E+02   -0.77115E-03   -0.96695E-03  1275   0.310E-01    0.541E-02
RMM:   7    -0.740254116488E+02   -0.32233E-03   -0.36672E-03  1211   0.187E-01    0.240E-02
RMM:   8    -0.740255599705E+02   -0.14832E-03   -0.15996E-03  1146   0.122E-01    0.125E-02
RMM:   9    -0.740256129413E+02   -0.52971E-04   -0.61475E-04  1034   0.830E-02    0.492E-03
RMM:  10    -0.740256336895E+02   -0.20748E-04   -0.24099E-04   810   0.625E-02    0.384E-03
RMM:  11    -0.740256329145E+02    0.77503E-06   -0.18396E-05   555   0.528E-02
  12 F= -.74025633E+02 E0= -.74025633E+02  d E =-.148328E+00
       N       E                     dE             d eps       ncg     rms          rms(c)
DAV:   1    -0.715752976310E+02    0.24503E+01   -0.42269E+02   768   0.103E+02    0.116E+01
RMM:   2    -0.734618015431E+02   -0.18865E+01   -0.23096E+01   968   0.189E+01    0.311E+00
RMM:   3    -0.740693679012E+02   -0.60757E+00   -0.77178E+00  1248   0.778E+00    0.297E+00
RMM:   4    -0.742251334933E+02   -0.15577E+00   -0.20382E+00  1217   0.387E+00    0.164E+00
RMM:   5    -0.742416419249E+02   -0.16508E-01   -0.37676E-01  1241   0.203E+00    0.691E-01
RMM:   6    -0.742473608533E+02   -0.57189E-02   -0.11288E-01  1252   0.116E+00    0.173E-01
RMM:   7    -0.742505252536E+02   -0.31644E-02   -0.33762E-02  1285   0.653E-01    0.932E-02
RMM:   8    -0.742518028564E+02   -0.12776E-02   -0.13101E-02  1297   0.398E-01    0.344E-02
RMM:   9    -0.742522516159E+02   -0.44876E-03   -0.48067E-03  1268   0.243E-01    0.193E-02
RMM:  10    -0.742524541907E+02   -0.20257E-03   -0.22056E-03  1237   0.162E-01    0.161E-02
RMM:  11    -0.742525589674E+02   -0.10478E-03   -0.11228E-03  1089   0.113E-01    0.697E-03
RMM:  12    -0.742526050022E+02   -0.46035E-04   -0.49005E-04   860   0.859E-02    0.298E-03
RMM:  13    -0.742526271218E+02   -0.22120E-04   -0.25630E-04   821   0.721E-02    0.259E-03
RMM:  14    -0.742526374220E+02   -0.10300E-04   -0.13622E-04   722   0.640E-02
  13 F= -.74252637E+02 E0= -.74252637E+02  d E =-.375332E+00
       N       E                     dE             d eps       ncg     rms          rms(c)
DAV:   1    -0.742969171789E+02   -0.44290E-01   -0.17994E+01   768   0.212E+01    0.150E+00
RMM:   2    -0.743366743820E+02   -0.39757E-01   -0.54298E-01  1013   0.330E+00    0.537E-01
RMM:   3    -0.743418457808E+02   -0.51714E-02   -0.10629E-01  1247   0.123E+00    0.396E-01
RMM:   4    -0.743421690383E+02   -0.32326E-03   -0.30205E-02  1214   0.588E-01    0.154E-01
RMM:   5    -0.743430049447E+02   -0.83591E-03   -0.11358E-02  1267   0.343E-01    0.730E-02
RMM:   6    -0.743434013378E+02   -0.39639E-03   -0.47452E-03  1281   0.217E-01    0.308E-02
RMM:   7    -0.743435624083E+02   -0.16107E-03   -0.20093E-03  1203   0.142E-01    0.168E-02
RMM:   8    -0.743436537894E+02   -0.91381E-04   -0.10100E-03  1111   0.975E-02    0.604E-03
RMM:   9    -0.743436834259E+02   -0.29637E-04   -0.33394E-04   824   0.690E-02    0.420E-03
RMM:  10    -0.743436947939E+02   -0.11368E-04   -0.15370E-04   767   0.581E-02
  14 F= -.74343695E+02 E0= -.74343695E+02  d E =-.910574E-01
       N       E                     dE             d eps       ncg     rms          rms(c)
DAV:   1    -0.738704476730E+02    0.47324E+00   -0.15269E+02   768   0.616E+01    0.503E+00
RMM:   2    -0.743638811596E+02   -0.49343E+00   -0.63625E+00   993   0.103E+01    0.179E+00
RMM:   3    -0.745001670740E+02   -0.13629E+00   -0.19307E+00  1245   0.430E+00    0.152E+00
RMM:   4    -0.745158031392E+02   -0.15636E-01   -0.40662E-01  1213   0.206E+00    0.709E-01
RMM:   5    -0.745192566612E+02   -0.34535E-02   -0.93114E-02  1246   0.109E+00    0.220E-01
RMM:   6    -0.745222920318E+02   -0.30354E-02   -0.37327E-02  1295   0.644E-01    0.123E-01
RMM:   7    -0.745233820876E+02   -0.10901E-02   -0.13434E-02  1267   0.382E-01    0.559E-02
RMM:   8    -0.745239299316E+02   -0.54784E-03   -0.60366E-03  1282   0.241E-01    0.176E-02
RMM:   9    -0.745241413192E+02   -0.21139E-03   -0.23023E-03  1207   0.153E-01    0.119E-02
RMM:  10    -0.745242444981E+02   -0.10318E-03   -0.11126E-03  1086   0.106E-01    0.773E-03
RMM:  11    -0.745242827359E+02   -0.38238E-04   -0.42067E-04   931   0.780E-02    0.437E-03
RMM:  12    -0.745242915104E+02   -0.87746E-05   -0.12338E-04   700   0.630E-02
  15 F= -.74524292E+02 E0= -.74524292E+02  d E =-.271654E+00
       N       E                     dE             d eps       ncg     rms          rms(c)
DAV:   1    -0.705360755952E+02    0.39882E+01   -0.53291E+02   768   0.114E+02    0.138E+01
RMM:   2    -0.732512871287E+02   -0.27152E+01   -0.34419E+01   985   0.219E+01    0.453E+00
RMM:   3    -0.743183100256E+02   -0.10670E+01   -0.13199E+01  1264   0.918E+00    0.426E+00
RMM:   4    -0.744164125793E+02   -0.98103E-01   -0.19296E+00  1214   0.414E+00    0.224E+00
RMM:   5    -0.744205215411E+02   -0.41090E-02   -0.41635E-01  1192   0.233E+00    0.399E-01
RMM:   6    -0.744320246419E+02   -0.11503E-01   -0.12961E-01  1280   0.123E+00    0.244E-01
RMM:   7    -0.744358265413E+02   -0.38019E-02   -0.40543E-02  1307   0.694E-01    0.104E-01
RMM:   8    -0.744367696887E+02   -0.94315E-03   -0.12438E-02  1289   0.397E-01    0.502E-02
RMM:   9    -0.744372784684E+02   -0.50878E-03   -0.53010E-03  1315   0.248E-01    0.271E-02
RMM:  10    -0.744374660127E+02   -0.18754E-03   -0.21007E-03  1259   0.158E-01    0.183E-02
RMM:  11    -0.744375610693E+02   -0.95057E-04   -0.10399E-03  1155   0.106E-01    0.499E-03
RMM:  12    -0.744375936116E+02   -0.32542E-04   -0.33858E-04   802   0.751E-02    0.669E-03
RMM:  13    -0.744376065409E+02   -0.12929E-04   -0.15972E-04   690   0.642E-02
  16 F= -.74437607E+02 E0= -.74437607E+02  d E =-.184969E+00
       N       E                     dE             d eps       ncg     rms          rms(c)
DAV:   1    -0.733515778045E+02    0.10860E+01   -0.26280E+02   768   0.800E+01    0.867E+00
RMM:   2    -0.742406322116E+02   -0.88905E+00   -0.12564E+01   988   0.142E+01    0.197E+00
RMM:   3    -0.744908040055E+02   -0.25017E+00   -0.36406E+00  1246   0.563E+00    0.196E+00
RMM:   4    -0.745540050600E+02   -0.63201E-01   -0.91058E-01  1258   0.281E+00    0.111E+00
RMM:   5    -0.745605243643E+02   -0.65193E-02   -0.15509E-01  1227   0.141E+00    0.408E-01
RMM:   6    -0.745666465892E+02   -0.61222E-02   -0.69381E-02  1293   0.882E-01    0.763E-02
RMM:   7    -0.745682329551E+02   -0.15864E-02   -0.17514E-02  1253   0.470E-01    0.433E-02
RMM:   8    -0.745688688729E+02   -0.63592E-03   -0.67699E-03  1319   0.287E-01    0.258E-02
RMM:   9    -0.745691233796E+02   -0.25451E-03   -0.27435E-03  1251   0.177E-01    0.111E-02
RMM:  10    -0.745692310197E+02   -0.10764E-03   -0.11638E-03  1160   0.116E-01    0.871E-03
RMM:  11    -0.745692754231E+02   -0.44403E-04   -0.47722E-04   949   0.818E-02    0.600E-03
RMM:  12    -0.745692860445E+02   -0.10621E-04   -0.12934E-04   669   0.651E-02
  17 F= -.74569286E+02 E0= -.74569286E+02  d E =-.316649E+00
       N       E                     dE             d eps       ncg     rms          rms(c)
DAV:   1    -0.745004344545E+02    0.68841E-01   -0.52787E+01   768   0.360E+01    0.169E+00
RMM:   2    -0.746426099044E+02   -0.14218E+00   -0.16200E+00  1021   0.538E+00    0.675E-01
RMM:   3    -0.746742943855E+02   -0.31684E-01   -0.38003E-01  1258   0.210E+00    0.569E-01
RMM:   4    -0.746787187104E+02   -0.44243E-02   -0.81734E-02  1282   0.965E-01    0.331E-01
RMM:   5    -0.746800426345E+02   -0.13239E-02   -0.23127E-02  1256   0.524E-01    0.103E-01
RMM:   6    -0.746809203609E+02   -0.87773E-03   -0.99926E-03  1304   0.325E-01    0.495E-02
RMM:   7    -0.746812549598E+02   -0.33460E-03   -0.36809E-03  1259   0.194E-01    0.251E-02
RMM:   8    -0.746813894441E+02   -0.13448E-03   -0.14015E-03  1211   0.122E-01    0.122E-02
RMM:   9    -0.746814376232E+02   -0.48179E-04   -0.58817E-04  1087   0.820E-02    0.497E-03
RMM:  10    -0.746814519142E+02   -0.14291E-04   -0.17437E-04   745   0.605E-02
  18 F= -.74681452E+02 E0= -.74681452E+02  d E =-.112166E+00
       N       E                     dE             d eps       ncg     rms          rms(c)
DAV:   1    -0.719842851520E+02    0.26972E+01   -0.41758E+02   768   0.101E+02    0.784E+00
RMM:   2    -0.739433405922E+02   -0.19591E+01   -0.22867E+01   993   0.176E+01    0.276E+00
RMM:   3    -0.747321604699E+02   -0.78882E+00   -0.86931E+00  1260   0.784E+00    0.268E+00
RMM:   4    -0.749223783515E+02   -0.19022E+00   -0.21653E+00  1258   0.392E+00    0.166E+00
RMM:   5    -0.749426354480E+02   -0.20257E-01   -0.37492E-01  1270   0.200E+00    0.865E-01
RMM:   6    -0.749462892714E+02   -0.36538E-02   -0.97779E-02  1240   0.112E+00    0.169E-01
RMM:   7    -0.749494104111E+02   -0.31211E-02   -0.32973E-02  1302   0.641E-01    0.105E-01
RMM:   8    -0.749506271040E+02   -0.12167E-02   -0.12051E-02  1304   0.384E-01    0.829E-02
RMM:   9    -0.749509195594E+02   -0.29246E-03   -0.42297E-03  1302   0.231E-01    0.579E-02
RMM:  10    -0.749509954649E+02   -0.75905E-04   -0.16736E-03  1261   0.149E-01    0.274E-02
RMM:  11    -0.749510672227E+02   -0.71758E-04   -0.79794E-04  1042   0.980E-02    0.142E-02
RMM:  12    -0.749510877194E+02   -0.20497E-04   -0.25425E-04   740   0.744E-02    0.604E-03
RMM:  13    -0.749511004395E+02   -0.12720E-04   -0.15810E-04   742   0.657E-02
  19 F= -.74951100E+02 E0= -.74951100E+02  d E =-.381814E+00
       N       E                     dE             d eps       ncg     rms          rms(c)
DAV:   1    -0.616146020673E+02    0.13336E+02   -0.13068E+03   768   0.177E+02    0.301E+01
RMM:   2    -0.691095493981E+02   -0.74949E+01   -0.92380E+01   972   0.357E+01    0.974E+00
RMM:   3    -0.729882263945E+02   -0.38787E+01   -0.43133E+01  1331   0.152E+01    0.101E+01
RMM:   4    -0.749009123539E+02   -0.19127E+01   -0.19608E+01  1318   0.926E+00    0.545E+00
RMM:   5    -0.750697436591E+02   -0.16883E+00   -0.23584E+00  1323   0.436E+00    0.384E+00
RMM:   6    -0.750190943703E+02    0.50649E-01   -0.25461E-01  1164   0.230E+00    0.117E+00
RMM:   7    -0.750298886426E+02   -0.10794E-01   -0.13724E-01  1245   0.137E+00    0.619E-01
RMM:   8    -0.750301941193E+02   -0.30548E-03   -0.49900E-02  1300   0.830E-01    0.461E-01
RMM:   9    -0.750312033576E+02   -0.10092E-02   -0.26212E-02  1324   0.568E-01    0.302E-01
RMM:  10    -0.750329002722E+02   -0.16969E-02   -0.18293E-02  1247   0.483E-01    0.274E-01
RMM:  11    -0.750315496495E+02    0.13506E-02   -0.61683E-03  1293   0.325E-01    0.765E-02
RMM:  12    -0.750316850492E+02   -0.13540E-03   -0.27616E-03  1291   0.192E-01    0.376E-02
RMM:  13    -0.750317828979E+02   -0.97849E-04   -0.12085E-03   888   0.119E-01    0.234E-02
RMM:  14    -0.750318748540E+02   -0.91956E-04   -0.78437E-04   862   0.921E-02    0.266E-02
RMM:  15    -0.750319117112E+02   -0.36857E-04   -0.46161E-04   804   0.765E-02    0.155E-02
RMM:  16    -0.750319376703E+02   -0.25959E-04   -0.31798E-04   661   0.672E-02    0.444E-03
RMM:  17    -0.750319531801E+02   -0.15510E-04   -0.17078E-04   570   0.627E-02
  20 F= -.75031953E+02 E0= -.75031953E+02  d E =-.462667E+00
       N       E                     dE             d eps       ncg     rms          rms(c)
DAV:   1    -0.731029406914E+02    0.19290E+01   -0.31830E+02   768   0.869E+01    0.650E+00
RMM:   2    -0.744399001661E+02   -0.13370E+01   -0.16035E+01   989   0.153E+01    0.166E+00
RMM:   3    -0.749371966057E+02   -0.49730E+00   -0.56794E+00  1263   0.642E+00    0.152E+00
RMM:   4    -0.750680081179E+02   -0.13081E+00   -0.15124E+00  1267   0.329E+00    0.919E-01
RMM:   5    -0.750816441195E+02   -0.13636E-01   -0.21208E-01  1262   0.158E+00    0.594E-01
RMM:   6    -0.750855037606E+02   -0.38596E-02   -0.80756E-02  1280   0.984E-01    0.896E-02
RMM:   7    -0.750873546933E+02   -0.18509E-02   -0.19489E-02  1270   0.510E-01    0.558E-02
RMM:   8    -0.750881932538E+02   -0.83856E-03   -0.91966E-03  1321   0.321E-01    0.329E-02
RMM:   9    -0.750884441657E+02   -0.25091E-03   -0.27222E-03  1260   0.178E-01    0.234E-02
RMM:  10    -0.750885345533E+02   -0.90388E-04   -0.10469E-03  1116   0.114E-01    0.124E-02
RMM:  11    -0.750885675867E+02   -0.33033E-04   -0.43738E-04   965   0.805E-02    0.353E-03
RMM:  12    -0.750885856328E+02   -0.18046E-04   -0.20609E-04   782   0.630E-02    0.287E-03
RMM:  13    -0.750885876540E+02   -0.20212E-05   -0.42761E-05   561   0.556E-02
  21 F= -.75088588E+02 E0= -.75088588E+02  d E =-.519302E+00
       N       E                     dE             d eps       ncg     rms          rms(c)
DAV:   1    -0.748604335198E+02    0.22815E+00   -0.12775E+02   768   0.551E+01    0.381E+00
RMM:   2    -0.751944873526E+02   -0.33405E+00   -0.44349E+00  1003   0.868E+00    0.109E+00
RMM:   3    -0.752982835820E+02   -0.10380E+00   -0.12369E+00  1260   0.349E+00    0.648E-01
RMM:   4    -0.753160753845E+02   -0.17792E-01   -0.25465E-01  1268   0.165E+00    0.348E-01
RMM:   5    -0.753205717688E+02   -0.44964E-02   -0.63770E-02  1295   0.863E-01    0.182E-01
RMM:   6    -0.753220216443E+02   -0.14499E-02   -0.20643E-02  1314   0.494E-01    0.449E-02
RMM:   7    -0.753227825287E+02   -0.76088E-03   -0.79007E-03  1298   0.289E-01    0.248E-02
RMM:   8    -0.753230740024E+02   -0.29147E-03   -0.30005E-03  1286   0.182E-01    0.112E-02
RMM:   9    -0.753232052267E+02   -0.13122E-03   -0.13736E-03  1164   0.119E-01    0.623E-03
RMM:  10    -0.753232537112E+02   -0.48485E-04   -0.50732E-04   963   0.826E-02    0.444E-03
RMM:  11    -0.753232659743E+02   -0.12263E-04   -0.14858E-04   724   0.641E-02
  22 F= -.75323266E+02 E0= -.75323266E+02  d E =-.234678E+00
       N       E                     dE             d eps       ncg     rms          rms(c)
DAV:   1    -0.727120506998E+02    0.26112E+01   -0.45193E+02   768   0.105E+02    0.986E+00
RMM:   2    -0.744773502203E+02   -0.17653E+01   -0.23382E+01   963   0.183E+01    0.236E+00
RMM:   3    -0.752317776866E+02   -0.75443E+00   -0.89770E+00  1258   0.804E+00    0.187E+00
RMM:   4    -0.754904498484E+02   -0.25867E+00   -0.27962E+00  1263   0.430E+00    0.107E+00
RMM:   5    -0.755161819252E+02   -0.25732E-01   -0.39506E-01  1287   0.212E+00    0.680E-01
RMM:   6    -0.755226610722E+02   -0.64791E-02   -0.14636E-01  1264   0.126E+00    0.915E-02
RMM:   7    -0.755256378590E+02   -0.29768E-02   -0.29488E-02  1278   0.651E-01    0.574E-02
RMM:   8    -0.755269165164E+02   -0.12787E-02   -0.13133E-02  1307   0.395E-01    0.478E-02
RMM:   9    -0.755272798478E+02   -0.36333E-03   -0.38667E-03  1285   0.227E-01    0.169E-02
RMM:  10    -0.755274404054E+02   -0.16056E-03   -0.16794E-03  1262   0.145E-01    0.121E-02
RMM:  11    -0.755275147515E+02   -0.74346E-04   -0.75524E-04   975   0.970E-02    0.988E-03
RMM:  12    -0.755275418047E+02   -0.27053E-04   -0.28354E-04   709   0.743E-02    0.550E-03
RMM:  13    -0.755275609133E+02   -0.19109E-04   -0.21711E-04   785   0.672E-02    0.281E-03
RMM:  14    -0.755275714053E+02   -0.10492E-04   -0.12933E-04   686   0.601E-02
  23 F= -.75527571E+02 E0= -.75527571E+02  d E =-.438984E+00
       N       E                     dE             d eps       ncg     rms          rms(c)
DAV:   1    -0.756974720422E+02   -0.16991E+00   -0.31128E+01   768   0.274E+01    0.253E+00
RMM:   2    -0.757096254453E+02   -0.12153E-01   -0.90291E-01  1019   0.444E+00    0.839E-01
RMM:   3    -0.757034129097E+02    0.62125E-02   -0.17290E-01  1193   0.161E+00    0.455E-01
RMM:   4    -0.757055589702E+02   -0.21461E-02   -0.50934E-02  1273   0.746E-01    0.331E-01
RMM:   5    -0.757072135531E+02   -0.16546E-02   -0.20242E-02  1248   0.445E-01    0.128E-01
RMM:   6    -0.757078338254E+02   -0.62027E-03   -0.81673E-03  1285   0.295E-01    0.267E-02
RMM:   7    -0.757081935176E+02   -0.35969E-03   -0.39257E-03  1233   0.194E-01    0.253E-02
RMM:   8    -0.757083589761E+02   -0.16546E-03   -0.17356E-03  1202   0.129E-01    0.168E-02
RMM:   9    -0.757084184290E+02   -0.59453E-04   -0.62998E-04  1026   0.866E-02    0.125E-02
RMM:  10    -0.757084406747E+02   -0.22246E-04   -0.26751E-04   913   0.671E-02    0.532E-03
RMM:  11    -0.757084451294E+02   -0.44547E-05   -0.81735E-05   705   0.550E-02
  24 F= -.75708445E+02 E0= -.75708445E+02  d E =-.180874E+00
       N       E                     dE             d eps       ncg     rms          rms(c)
DAV:   1    -0.754001469926E+02    0.30829E+00   -0.27567E+02   768   0.836E+01    0.996E+00
RMM:   2    -0.757436760522E+02   -0.34353E+00   -0.11760E+01  1004   0.144E+01    0.254E+00
RMM:   3    -0.758612828139E+02   -0.11761E+00   -0.33501E+00  1194   0.573E+00    0.187E+00
RMM:   4    -0.759117408090E+02   -0.50458E-01   -0.80171E-01  1270   0.289E+00    0.122E+00
RMM:   5    -0.759215455814E+02   -0.98048E-02   -0.16876E-01  1246   0.149E+00    0.383E-01
RMM:   6    -0.759273959979E+02   -0.58504E-02   -0.70465E-02  1286   0.937E-01    0.883E-02
RMM:   7    -0.759296902860E+02   -0.22943E-02   -0.24910E-02  1259   0.546E-01    0.665E-02
RMM:   8    -0.759307245062E+02   -0.10342E-02   -0.10850E-02  1316   0.350E-01    0.463E-02
RMM:   9    -0.759310990842E+02   -0.37458E-03   -0.40791E-03  1261   0.216E-01    0.303E-02
RMM:  10    -0.759312724783E+02   -0.17339E-03   -0.19130E-03  1212   0.145E-01    0.125E-02
RMM:  11    -0.759313614409E+02   -0.88963E-04   -0.91943E-04  1056   0.994E-02    0.100E-02
RMM:  12    -0.759313927358E+02   -0.31295E-04   -0.33377E-04   836   0.736E-02    0.399E-03
RMM:  13    -0.759314039613E+02   -0.11225E-04   -0.13502E-04   686   0.627E-02
  25 F= -.75931404E+02 E0= -.75931404E+02  d E =-.403833E+00
       N       E                     dE             d eps       ncg     rms          rms(c)
DAV:   1    -0.760242626434E+02   -0.92870E-01   -0.34810E+01   768   0.292E+01    0.290E+00
RMM:   2    -0.760799764236E+02   -0.55714E-01   -0.13124E+00  1006   0.516E+00    0.792E-01
RMM:   3    -0.760736593318E+02    0.63171E-02   -0.20924E-01  1204   0.178E+00    0.761E-01
RMM:   4    -0.760759270157E+02   -0.22677E-02   -0.65497E-02  1272   0.832E-01    0.505E-01
RMM:   5    -0.760775732604E+02   -0.16462E-02   -0.26339E-02  1246   0.519E-01    0.140E-01
RMM:   6    -0.760786003011E+02   -0.10270E-02   -0.11941E-02  1284   0.341E-01    0.363E-02
RMM:   7    -0.760790734126E+02   -0.47311E-03   -0.50832E-03  1217   0.224E-01    0.215E-02
RMM:   8    -0.760792883901E+02   -0.21498E-03   -0.22722E-03  1187   0.152E-01    0.101E-02
RMM:   9    -0.760793894003E+02   -0.10101E-03   -0.10620E-03  1129   0.107E-01    0.613E-03
RMM:  10    -0.760794283769E+02   -0.38977E-04   -0.41795E-04   935   0.774E-02    0.287E-03
RMM:  11    -0.760794415327E+02   -0.13156E-04   -0.15620E-04   750   0.623E-02
  26 F= -.76079442E+02 E0= -.76079442E+02  d E =-.148038E+00
       N       E                     dE             d eps       ncg     rms          rms(c)
DAV:   1    -0.760659282680E+02    0.13500E-01   -0.28970E+01   768   0.267E+01    0.257E+00
RMM:   2    -0.761125122890E+02   -0.46584E-01   -0.10736E+00  1012   0.473E+00    0.700E-01
RMM:   3    -0.761091987096E+02    0.33136E-02   -0.17222E-01  1190   0.163E+00    0.632E-01
RMM:   4    -0.761107625892E+02   -0.15639E-02   -0.54910E-02  1261   0.783E-01    0.435E-01
RMM:   5    -0.761123019839E+02   -0.15394E-02   -0.22596E-02  1268   0.491E-01    0.132E-01
RMM:   6    -0.761131662548E+02   -0.86427E-03   -0.10396E-02  1290   0.327E-01    0.309E-02
RMM:   7    -0.761136286590E+02   -0.46240E-03   -0.49758E-03  1229   0.223E-01    0.196E-02
RMM:   8    -0.761138496242E+02   -0.22097E-03   -0.23166E-03  1199   0.155E-01    0.139E-02
RMM:   9    -0.761139482879E+02   -0.98664E-04   -0.10563E-03  1162   0.110E-01    0.672E-03
RMM:  10    -0.761139935612E+02   -0.45273E-04   -0.48843E-04   970   0.803E-02    0.431E-03
RMM:  11    -0.761140079773E+02   -0.14416E-04   -0.17382E-04   781   0.648E-02
  27 F= -.76114008E+02 E0= -.76114008E+02  d E =-.182604E+00
       N       E                     dE             d eps       ncg     rms          rms(c)
DAV:   1    -0.761142678956E+02   -0.27433E-03   -0.39571E-01   960   0.312E+00    0.294E-01
RMM:   2    -0.761148802594E+02   -0.61236E-03   -0.13783E-02   992   0.532E-01    0.779E-02
RMM:   3    -0.761147436896E+02    0.13657E-03   -0.19141E-03  1163   0.177E-01    0.599E-02
RMM:   4    -0.761147438960E+02   -0.20637E-06   -0.53756E-04  1129   0.781E-02    0.418E-02
RMM:   5    -0.761147390696E+02    0.48264E-05   -0.45779E-05   576   0.497E-02
  28 F= -.76114739E+02 E0= -.76114739E+02  d E =-.183335E+00
       N       E                     dE             d eps       ncg     rms          rms(c)
DAV:   1    -0.761477773163E+02   -0.33033E-01   -0.23426E+00   768   0.740E+00    0.418E-01
RMM:   2    -0.761527144444E+02   -0.49371E-02   -0.67914E-02  1010   0.114E+00    0.146E-01
RMM:   3    -0.761531208423E+02   -0.40640E-03   -0.10218E-02  1242   0.391E-01    0.115E-01
RMM:   4    -0.761532103073E+02   -0.89465E-04   -0.31522E-03  1215   0.170E-01    0.630E-02
RMM:   5    -0.761533131672E+02   -0.10286E-03   -0.12590E-03  1178   0.103E-01    0.360E-02
RMM:   6    -0.761533280751E+02   -0.14908E-04   -0.21046E-04   723   0.625E-02    0.445E-03
RMM:   7    -0.761533345138E+02   -0.64387E-05   -0.10981E-04   728   0.537E-02
  29 F= -.76153335E+02 E0= -.76153335E+02  d E =-.385954E-01
       N       E                     dE             d eps       ncg     rms          rms(c)
DAV:   1    -0.761986507002E+02   -0.45323E-01   -0.21047E+01   768   0.222E+01    0.133E+00
RMM:   2    -0.762447323757E+02   -0.46082E-01   -0.63981E-01  1009   0.344E+00    0.431E-01
RMM:   3    -0.762499919765E+02   -0.52596E-02   -0.10902E-01  1250   0.120E+00    0.372E-01
RMM:   4    -0.762510799986E+02   -0.10880E-02   -0.30107E-02  1261   0.549E-01    0.214E-01
RMM:   5    -0.762519178210E+02   -0.83782E-03   -0.10849E-02  1231   0.317E-01    0.114E-01
RMM:   6    -0.762522570639E+02   -0.33924E-03   -0.39843E-03  1267   0.194E-01    0.256E-02
RMM:   7    -0.762523817752E+02   -0.12471E-03   -0.13577E-03  1205   0.115E-01    0.128E-02
RMM:   8    -0.762524159009E+02   -0.34126E-04   -0.37718E-04   885   0.749E-02    0.564E-03
RMM:   9    -0.762524282140E+02   -0.12313E-04   -0.15718E-04   749   0.605E-02
  30 F= -.76252428E+02 E0= -.76252428E+02  d E =-.137689E+00
       N       E                     dE             d eps       ncg     rms          rms(c)
DAV:   1    -0.761043421343E+02    0.14807E+00   -0.83160E+01   768   0.445E+01    0.307E+00
RMM:   2    -0.763191888744E+02   -0.21485E+00   -0.29674E+00  1002   0.704E+00    0.885E-01
RMM:   3    -0.763609376573E+02   -0.41749E-01   -0.65877E-01  1249   0.258E+00    0.853E-01
RMM:   4    -0.763683867958E+02   -0.74491E-02   -0.14954E-01  1269   0.121E+00    0.507E-01
RMM:   5    -0.763714357708E+02   -0.30490E-02   -0.43479E-02  1270   0.661E-01    0.249E-01
RMM:   6    -0.763726205352E+02   -0.11848E-02   -0.14639E-02  1273   0.385E-01    0.489E-02
RMM:   7    -0.763730551884E+02   -0.43465E-03   -0.49295E-03  1258   0.227E-01    0.282E-02
RMM:   8    -0.763732461559E+02   -0.19097E-03   -0.20755E-03  1282   0.148E-01    0.922E-03
RMM:   9    -0.763733189862E+02   -0.72830E-04   -0.78494E-04  1065   0.943E-02    0.627E-03
RMM:  10    -0.763733428978E+02   -0.23912E-04   -0.27983E-04   796   0.694E-02    0.353E-03
RMM:  11    -0.763733527994E+02   -0.99017E-05   -0.13440E-04   720   0.602E-02
  31 F= -.76373353E+02 E0= -.76373353E+02  d E =-.258614E+00
       N       E                     dE             d eps       ncg     rms          rms(c)
DAV:   1    -0.746620202765E+02    0.17113E+01   -0.31427E+02   768   0.878E+01    0.845E+00
RMM:   2    -0.758083344359E+02   -0.11463E+01   -0.15562E+01   979   0.148E+01    0.212E+00
RMM:   3    -0.761596225556E+02   -0.35129E+00   -0.47321E+00  1245   0.587E+00    0.249E+00
RMM:   4    -0.762745042373E+02   -0.11488E+00   -0.13865E+00  1239   0.293E+00    0.143E+00
RMM:   5    -0.762844855163E+02   -0.99813E-02   -0.19743E-01  1258   0.148E+00    0.697E-01
RMM:   6    -0.762921858469E+02   -0.77003E-02   -0.92340E-02  1284   0.934E-01    0.816E-02
RMM:   7    -0.762938679115E+02   -0.16821E-02   -0.19395E-02  1258   0.499E-01    0.438E-02
RMM:   8    -0.762947337671E+02   -0.86586E-03   -0.91309E-03  1292   0.312E-01    0.353E-02
RMM:   9    -0.762949599554E+02   -0.22619E-03   -0.26283E-03  1257   0.178E-01    0.208E-02
RMM:  10    -0.762950665272E+02   -0.10657E-03   -0.11633E-03  1241   0.118E-01    0.228E-02
RMM:  11    -0.762950992447E+02   -0.32717E-04   -0.46473E-04   833   0.799E-02    0.128E-02
RMM:  12    -0.762951257489E+02   -0.26504E-04   -0.33616E-04   936   0.699E-02    0.630E-03
RMM:  13    -0.762951307695E+02   -0.50206E-05   -0.83563E-05   615   0.579E-02
  32 F= -.76295131E+02 E0= -.76295131E+02  d E =-.180392E+00
       N       E                     dE             d eps       ncg     rms          rms(c)
DAV:   1    -0.757765675216E+02    0.51856E+00   -0.15055E+02   768   0.598E+01    0.397E+00
RMM:   2    -0.762581931943E+02   -0.48163E+00   -0.60391E+00   985   0.961E+00    0.134E+00
RMM:   3    -0.763743885688E+02   -0.11620E+00   -0.16761E+00  1239   0.372E+00    0.109E+00
RMM:   4    -0.763920502911E+02   -0.17662E-01   -0.35343E-01  1248   0.175E+00    0.657E-01
RMM:   5    -0.763938435047E+02   -0.17932E-02   -0.71379E-02  1267   0.905E-01    0.297E-01
RMM:   6    -0.763951948979E+02   -0.13514E-02   -0.24394E-02  1265   0.520E-01    0.102E-01
RMM:   7    -0.763959250885E+02   -0.73019E-03   -0.81168E-03  1260   0.290E-01    0.492E-02
RMM:   8    -0.763961920247E+02   -0.26694E-03   -0.28883E-03  1284   0.177E-01    0.101E-02
RMM:   9    -0.763963000085E+02   -0.10798E-03   -0.11613E-03  1210   0.111E-01    0.993E-03
RMM:  10    -0.763963373380E+02   -0.37329E-04   -0.41920E-04   854   0.766E-02    0.727E-03
RMM:  11    -0.763963492198E+02   -0.11882E-04   -0.16060E-04   729   0.622E-02
  33 F= -.76396349E+02 E0= -.76396349E+02  d E =-.281610E+00
       N       E                     dE             d eps       ncg     rms          rms(c)
DAV:   1    -0.764476128441E+02   -0.51276E-01   -0.82423E+00   768   0.139E+01    0.148E+00
RMM:   2    -0.764507371173E+02   -0.31243E-02   -0.25976E-01   994   0.228E+00    0.593E-01
RMM:   3    -0.764476052589E+02    0.31319E-02   -0.42519E-02  1177   0.800E-01    0.332E-01
RMM:   4    -0.764471298899E+02    0.47537E-03   -0.12739E-02  1188   0.378E-01    0.142E-01
RMM:   5    -0.764474848466E+02   -0.35496E-03   -0.52312E-03  1289   0.224E-01    0.671E-02
RMM:   6    -0.764476123171E+02   -0.12747E-03   -0.15892E-03  1211   0.123E-01    0.192E-02
RMM:   7    -0.764476600980E+02   -0.47781E-04   -0.55427E-04  1115   0.778E-02    0.987E-03
RMM:   8    -0.764476619444E+02   -0.18465E-05   -0.41067E-05   607   0.536E-02
  34 F= -.76447662E+02 E0= -.76447662E+02  d E =-.513127E-01
       N       E                     dE             d eps       ncg     rms          rms(c)
DAV:   1    -0.764778439907E+02   -0.30184E-01   -0.14773E+01   768   0.186E+01    0.200E+00
RMM:   2    -0.764840282950E+02   -0.61843E-02   -0.47614E-01   994   0.307E+00    0.797E-01
RMM:   3    -0.764789986950E+02    0.50296E-02   -0.84184E-02  1211   0.111E+00    0.439E-01
RMM:   4    -0.764784475769E+02    0.55112E-03   -0.25145E-02  1235   0.507E-01    0.194E-01
RMM:   5    -0.764791898383E+02   -0.74226E-03   -0.10585E-02  1303   0.303E-01    0.920E-02
RMM:   6    -0.764794447587E+02   -0.25492E-03   -0.32062E-03  1252   0.172E-01    0.266E-02
RMM:   7    -0.764795443178E+02   -0.99559E-04   -0.11248E-03  1183   0.105E-01    0.134E-02
RMM:   8    -0.764795667380E+02   -0.22420E-04   -0.25565E-04   830   0.689E-02    0.623E-03
RMM:   9    -0.764795782018E+02   -0.11464E-04   -0.14871E-04   794   0.574E-02
  35 F= -.76479578E+02 E0= -.76479578E+02  d E =-.832290E-01
       N       E                     dE             d eps       ncg     rms          rms(c)
DAV:   1    -0.765184190426E+02   -0.38852E-01   -0.77717E+00   768   0.136E+01    0.114E+00
RMM:   2    -0.765341266618E+02   -0.15708E-01   -0.27113E-01   992   0.237E+00    0.498E-01
RMM:   3    -0.765318415673E+02    0.22851E-02   -0.36496E-02  1233   0.777E-01    0.404E-01
RMM:   4    -0.765307319469E+02    0.11096E-02   -0.14297E-02  1146   0.382E-01    0.946E-02
RMM:   5    -0.765310821653E+02   -0.35022E-03   -0.47880E-03  1313   0.220E-01    0.493E-02
RMM:   6    -0.765311919183E+02   -0.10975E-03   -0.21023E-03  1182   0.141E-01    0.168E-02
RMM:   7    -0.765312517198E+02   -0.59801E-04   -0.84989E-04  1190   0.935E-02    0.108E-02
RMM:   8    -0.765312693431E+02   -0.17623E-04   -0.22809E-04   786   0.657E-02    0.411E-03
RMM:   9    -0.765312799482E+02   -0.10605E-04   -0.15039E-04   830   0.572E-02
  36 F= -.76531280E+02 E0= -.76531280E+02  d E =-.517017E-01
       N       E                     dE             d eps       ncg     rms          rms(c)
DAV:   1    -0.765136377372E+02    0.17632E-01   -0.32624E+01   768   0.277E+01    0.237E+00
RMM:   2    -0.765844368902E+02   -0.70799E-01   -0.11862E+00   989   0.490E+00    0.105E+00
RMM:   3    -0.765771520449E+02    0.72848E-02   -0.17393E-01  1234   0.164E+00    0.875E-01
RMM:   4    -0.765720479683E+02    0.51041E-02   -0.61422E-02  1139   0.822E-01    0.207E-01
RMM:   5    -0.765733922182E+02   -0.13442E-02   -0.19338E-02  1317   0.459E-01    0.104E-01
RMM:   6    -0.765738119700E+02   -0.41975E-03   -0.90640E-03  1230   0.295E-01    0.403E-02
RMM:   7    -0.765740257559E+02   -0.21379E-03   -0.34935E-03  1225   0.191E-01    0.224E-02
RMM:   8    -0.765741728922E+02   -0.14714E-03   -0.16802E-03  1210   0.133E-01    0.867E-03
RMM:   9    -0.765742470889E+02   -0.74197E-04   -0.78936E-04  1123   0.915E-02    0.409E-03
RMM:  10    -0.765742651009E+02   -0.18012E-04   -0.20333E-04   790   0.654E-02    0.196E-03
RMM:  11    -0.765742677367E+02   -0.26359E-05   -0.62274E-05   657   0.575E-02
  37 F= -.76574268E+02 E0= -.76574268E+02  d E =-.946895E-01
       N       E                     dE             d eps       ncg     rms          rms(c)
DAV:   1    -0.766081139461E+02   -0.33849E-01   -0.10466E+01   784   0.156E+01    0.195E+00
RMM:   2    -0.766144462487E+02   -0.63323E-02   -0.35960E-01   988   0.277E+00    0.711E-01
RMM:   3    -0.766080244335E+02    0.64218E-02   -0.47099E-02  1155   0.899E-01    0.466E-01
RMM:   4    -0.766057013343E+02    0.23231E-02   -0.17915E-02  1077   0.466E-01    0.138E-01
RMM:   5    -0.766061879659E+02   -0.48663E-03   -0.68705E-03  1279   0.272E-01    0.772E-02
RMM:   6    -0.766063899454E+02   -0.20198E-03   -0.27248E-03  1210   0.162E-01    0.229E-02
RMM:   7    -0.766064773149E+02   -0.87369E-04   -0.12170E-03  1194   0.113E-01    0.149E-02
RMM:   8    -0.766065235244E+02   -0.46210E-04   -0.52283E-04   999   0.785E-02    0.551E-03
RMM:   9    -0.766065337537E+02   -0.10229E-04   -0.13175E-04   739   0.600E-02
  38 F= -.76606534E+02 E0= -.76606534E+02  d E =-.322660E-01
       N       E                     dE             d eps       ncg     rms          rms(c)
DAV:   1    -0.766150755849E+02   -0.85521E-02   -0.58171E+00   768   0.116E+01    0.149E+00
RMM:   2    -0.766184134675E+02   -0.33379E-02   -0.19985E-01   990   0.207E+00    0.539E-01
RMM:   3    -0.766148782685E+02    0.35352E-02   -0.26782E-02  1167   0.677E-01    0.358E-01
RMM:   4    -0.766135126763E+02    0.13656E-02   -0.10222E-02  1076   0.348E-01    0.104E-01
RMM:   5    -0.766137929162E+02   -0.28024E-03   -0.39516E-03  1262   0.204E-01    0.580E-02
RMM:   6    -0.766139100972E+02   -0.11718E-03   -0.15925E-03  1189   0.125E-01    0.175E-02
RMM:   7    -0.766139620144E+02   -0.51917E-04   -0.71741E-04  1155   0.872E-02    0.108E-02
RMM:   8    -0.766139795520E+02   -0.17538E-04   -0.21638E-04   790   0.618E-02    0.529E-03
RMM:   9    -0.766139806278E+02   -0.10758E-05   -0.48416E-05   638   0.536E-02
  39 F= -.76613981E+02 E0= -.76613981E+02  d E =-.397129E-01
       N       E                     dE             d eps       ncg     rms          rms(c)
DAV:   1    -0.766334801546E+02   -0.19501E-01   -0.80916E+00   768   0.132E+01    0.147E+00
RMM:   2    -0.766508553300E+02   -0.17375E-01   -0.31518E-01   967   0.251E+00    0.517E-01
RMM:   3    -0.766466984117E+02    0.41569E-02   -0.31165E-02  1173   0.740E-01    0.417E-01
RMM:   4    -0.766453137489E+02    0.13847E-02   -0.10850E-02  1083   0.332E-01    0.154E-01
RMM:   5    -0.766455231082E+02   -0.20936E-03   -0.39873E-03  1210   0.200E-01    0.703E-02
RMM:   6    -0.766456358657E+02   -0.11276E-03   -0.19372E-03  1124   0.129E-01    0.231E-02
RMM:   7    -0.766456769542E+02   -0.41089E-04   -0.83653E-04  1114   0.884E-02    0.132E-02
RMM:   8    -0.766456958551E+02   -0.18901E-04   -0.25388E-04   777   0.617E-02    0.349E-03
RMM:   9    -0.766457059936E+02   -0.10139E-04   -0.13427E-04   723   0.526E-02
  40 F= -.76645706E+02 E0= -.76645706E+02  d E =-.317254E-01
       N       E                     dE             d eps       ncg     rms          rms(c)
DAV:   1    -0.766288689510E+02    0.16827E-01   -0.30077E+01   768   0.255E+01    0.307E+00
RMM:   2    -0.766919205502E+02   -0.63052E-01   -0.11867E+00   965   0.488E+00    0.102E+00
RMM:   3    -0.766776646323E+02    0.14256E-01   -0.12039E-01  1179   0.142E+00    0.851E-01
RMM:   4    -0.766724709366E+02    0.51937E-02   -0.41459E-02  1096   0.648E-01    0.310E-01
RMM:   5    -0.766731740666E+02   -0.70313E-03   -0.14170E-02  1233   0.379E-01    0.141E-01
RMM:   6    -0.766735639508E+02   -0.38988E-03   -0.69841E-03  1191   0.248E-01    0.436E-02
RMM:   7    -0.766737030987E+02   -0.13915E-03   -0.28793E-03  1158   0.163E-01    0.238E-02
RMM:   8    -0.766738197986E+02   -0.11670E-03   -0.13692E-03  1098   0.113E-01    0.734E-03
RMM:   9    -0.766738831195E+02   -0.63321E-04   -0.67600E-04  1008   0.812E-02    0.399E-03
RMM:  10    -0.766739003078E+02   -0.17188E-04   -0.19503E-04   727   0.604E-02
  41 F= -.76673900E+02 E0= -.76673900E+02  d E =-.599197E-01
       N       E                     dE             d eps       ncg     rms          rms(c)
DAV:   1    -0.767054414670E+02   -0.31558E-01   -0.10663E+01   784   0.152E+01    0.176E+00
RMM:   2    -0.767212414149E+02   -0.15800E-01   -0.39449E-01   963   0.279E+00    0.610E-01
RMM:   3    -0.767133257062E+02    0.79157E-02   -0.39801E-02  1156   0.828E-01    0.481E-01
RMM:   4    -0.767110715169E+02    0.22542E-02   -0.15142E-02  1060   0.399E-01    0.163E-01
RMM:   5    -0.767112773509E+02   -0.20583E-03   -0.50052E-03  1195   0.233E-01    0.715E-02
RMM:   6    -0.767114338251E+02   -0.15647E-03   -0.23314E-03  1179   0.147E-01    0.204E-02
RMM:   7    -0.767115252168E+02   -0.91392E-04   -0.11308E-03  1081   0.102E-01    0.112E-02
RMM:   8    -0.767115735573E+02   -0.48340E-04   -0.55786E-04   908   0.754E-02    0.438E-03
RMM:   9    -0.767115973836E+02   -0.23826E-04   -0.27175E-04   811   0.600E-02    0.217E-03
RMM:  10    -0.767116055679E+02   -0.81843E-05   -0.10887E-04   648   0.510E-02
  42 F= -.76711606E+02 E0= -.76711606E+02  d E =-.377053E-01
       N       E                     dE             d eps       ncg     rms          rms(c)
DAV:   1    -0.766420397643E+02    0.69558E-01   -0.92902E+01   768   0.451E+01    0.619E+00
RMM:   2    -0.767984283343E+02   -0.15639E+00   -0.38234E+00   956   0.847E+00    0.201E+00
RMM:   3    -0.767492596592E+02    0.49169E-01   -0.50624E-01  1179   0.258E+00    0.180E+00
RMM:   4    -0.767289925198E+02    0.20267E-01   -0.15471E-01  1075   0.128E+00    0.568E-01
RMM:   5    -0.767302357568E+02   -0.12432E-02   -0.44151E-02  1195   0.707E-01    0.205E-01
RMM:   6    -0.767312174833E+02   -0.98173E-03   -0.19068E-02  1240   0.436E-01    0.706E-02
RMM:   7    -0.767318543466E+02   -0.63686E-03   -0.84179E-03  1194   0.283E-01    0.331E-02
RMM:   8    -0.767322731056E+02   -0.41876E-03   -0.46750E-03  1151   0.205E-01    0.119E-02
RMM:   9    -0.767325223018E+02   -0.24920E-03   -0.26600E-03  1059   0.151E-01    0.593E-03
RMM:  10    -0.767326656612E+02   -0.14336E-03   -0.15056E-03  1059   0.114E-01    0.475E-03
RMM:  11    -0.767327381485E+02   -0.72487E-04   -0.76175E-04   952   0.861E-02    0.299E-03
RMM:  12    -0.767327718686E+02   -0.33720E-04   -0.37106E-04   812   0.684E-02    0.169E-03
RMM:  13    -0.767327897596E+02   -0.17891E-04   -0.21578E-04   760   0.600E-02    0.108E-03
RMM:  14    -0.767327988602E+02   -0.91006E-05   -0.11997E-04   696   0.536E-02
  43 F= -.76732799E+02 E0= -.76732799E+02  d E =-.588986E-01
       N       E                     dE             d eps       ncg     rms          rms(c)
DAV:   1    -0.767346836601E+02   -0.18939E-02   -0.11374E+01   792   0.157E+01    0.171E+00
RMM:   2    -0.767516836553E+02   -0.17000E-01   -0.42976E-01   962   0.291E+00    0.626E-01
RMM:   3    -0.767430699754E+02    0.86137E-02   -0.47186E-02  1164   0.872E-01    0.442E-01
RMM:   4    -0.767403190737E+02    0.27509E-02   -0.15558E-02  1047   0.412E-01    0.142E-01
RMM:   5    -0.767405175711E+02   -0.19850E-03   -0.47790E-03  1208   0.227E-01    0.771E-02
RMM:   6    -0.767406468421E+02   -0.12927E-03   -0.20976E-03  1180   0.140E-01    0.240E-02
RMM:   7    -0.767407266969E+02   -0.79855E-04   -0.10300E-03  1075   0.966E-02    0.137E-02
RMM:   8    -0.767407689327E+02   -0.42236E-04   -0.50188E-04   868   0.715E-02    0.528E-03
RMM:   9    -0.767407888482E+02   -0.19915E-04   -0.23372E-04   754   0.574E-02    0.224E-03
RMM:  10    -0.767407951833E+02   -0.63352E-05   -0.93240E-05   656   0.499E-02
  44 F= -.76740795E+02 E0= -.76740795E+02  d E =-.668949E-01
       N       E                     dE             d eps       ncg     rms          rms(c)
DAV:   1    -0.767755560605E+02   -0.34767E-01   -0.11027E+01   768   0.156E+01    0.153E+00
RMM:   2    -0.767789753227E+02   -0.34193E-02   -0.37722E-01   975   0.274E+00    0.643E-01
RMM:   3    -0.767712051122E+02    0.77702E-02   -0.48714E-02  1151   0.859E-01    0.388E-01
RMM:   4    -0.767697510173E+02    0.14541E-02   -0.13110E-02  1148   0.372E-01    0.192E-01
RMM:   5    -0.767699034255E+02   -0.15241E-03   -0.47788E-03  1190   0.226E-01    0.791E-02
RMM:   6    -0.767700900986E+02   -0.18667E-03   -0.23333E-03  1186   0.148E-01    0.157E-02
RMM:   7    -0.767701914793E+02   -0.10138E-03   -0.11056E-03  1061   0.104E-01    0.783E-03
RMM:   8    -0.767702439626E+02   -0.52483E-04   -0.57589E-04   967   0.782E-02    0.546E-03
RMM:   9    -0.767702648880E+02   -0.20925E-04   -0.24054E-04   746   0.621E-02    0.250E-03
RMM:  10    -0.767702741944E+02   -0.93065E-05   -0.12757E-04   740   0.549E-02
  45 F= -.76770274E+02 E0= -.76770274E+02  d E =-.294790E-01
       N       E                     dE             d eps       ncg     rms          rms(c)
DAV:   1    -0.768084110275E+02   -0.38146E-01   -0.58018E+01   768   0.360E+01    0.400E+00
RMM:   2    -0.768329750243E+02   -0.24564E-01   -0.21705E+00   970   0.642E+00    0.150E+00
RMM:   3    -0.767968810779E+02    0.36094E-01   -0.32006E-01  1142   0.206E+00    0.984E-01
RMM:   4    -0.767900928111E+02    0.67883E-02   -0.86365E-02  1158   0.975E-01    0.477E-01
RMM:   5    -0.767910887386E+02   -0.99593E-03   -0.28784E-02  1218   0.568E-01    0.191E-01
RMM:   6    -0.767921866520E+02   -0.10979E-02   -0.13870E-02  1261   0.367E-01    0.370E-02
RMM:   7    -0.767927850695E+02   -0.59842E-03   -0.65096E-03  1192   0.247E-01    0.235E-02
RMM:   8    -0.767931074738E+02   -0.32240E-03   -0.34541E-03  1132   0.176E-01    0.127E-02
RMM:   9    -0.767932745456E+02   -0.16707E-03   -0.17858E-03  1112   0.130E-01    0.660E-03
RMM:  10    -0.767933636370E+02   -0.89091E-04   -0.96503E-04   992   0.975E-02    0.603E-03
RMM:  11    -0.767934125977E+02   -0.48961E-04   -0.53339E-04   916   0.774E-02    0.420E-03
RMM:  12    -0.767934331715E+02   -0.20574E-04   -0.23836E-04   786   0.634E-02    0.259E-03
RMM:  13    -0.767934409339E+02   -0.77624E-05   -0.11026E-04   688   0.564E-02
  46 F= -.76793441E+02 E0= -.76793441E+02  d E =-.526458E-01
       N       E                     dE             d eps       ncg     rms          rms(c)
DAV:   1    -0.767951756205E+02   -0.17424E-02   -0.15173E+00   880   0.579E+00    0.533E-01
RMM:   2    -0.767956931467E+02   -0.51753E-03   -0.53069E-02   974   0.103E+00    0.251E-01
RMM:   3    -0.767945417354E+02    0.11514E-02   -0.72886E-03  1149   0.331E-01    0.145E-01
RMM:   4    -0.767943126777E+02    0.22906E-03   -0.18396E-03  1127   0.144E-01    0.657E-02
RMM:   5    -0.767943255357E+02   -0.12858E-04   -0.60499E-04  1104   0.824E-02    0.304E-02
RMM:   6    -0.767943335191E+02   -0.79833E-05   -0.14644E-04   674   0.533E-02
  47 F= -.76794334E+02 E0= -.76794334E+02  d E =-.535383E-01
       N       E                     dE             d eps       ncg     rms          rms(c)
DAV:   1    -0.768014052746E+02   -0.70797E-02   -0.38428E-01   880   0.294E+00    0.377E-01
RMM:   2    -0.768021131958E+02   -0.70792E-03   -0.15768E-02   972   0.563E-01    0.130E-01
RMM:   3    -0.768018600871E+02    0.25311E-03   -0.17591E-03  1163   0.175E-01    0.964E-02
RMM:   4    -0.768017652138E+02    0.94873E-04   -0.76870E-04   976   0.904E-02    0.231E-02
RMM:   5    -0.768017749438E+02   -0.97300E-05   -0.19210E-04   841   0.544E-02
  48 F= -.76801775E+02 E0= -.76801775E+02  d E =-.744142E-02
       N       E                     dE             d eps       ncg     rms          rms(c)
DAV:   1    -0.768111989529E+02   -0.94337E-02   -0.34485E+00   768   0.880E+00    0.113E+00
RMM:   2    -0.768177114602E+02   -0.65125E-02   -0.14295E-01   974   0.170E+00    0.390E-01
RMM:   3    -0.768157419373E+02    0.19695E-02   -0.17943E-02  1195   0.546E-01    0.286E-01
RMM:   4    -0.768149366908E+02    0.80525E-03   -0.78441E-03  1068   0.283E-01    0.688E-02
RMM:   5    -0.768151087250E+02   -0.17203E-03   -0.26873E-03  1203   0.167E-01    0.411E-02
RMM:   6    -0.768152056630E+02   -0.96938E-04   -0.13717E-03  1116   0.113E-01    0.140E-02
RMM:   7    -0.768152547755E+02   -0.49112E-04   -0.65138E-04  1065   0.814E-02    0.751E-03
RMM:   8    -0.768152791355E+02   -0.24360E-04   -0.28522E-04   805   0.611E-02    0.393E-03
RMM:   9    -0.768152836086E+02   -0.44731E-05   -0.78383E-05   634   0.519E-02
  49 F= -.76815284E+02 E0= -.76815284E+02  d E =-.209501E-01
       N       E                     dE             d eps       ncg     rms          rms(c)
DAV:   1    -0.767862639266E+02    0.29015E-01   -0.13731E+01   768   0.176E+01    0.224E+00
RMM:   2    -0.768125496737E+02   -0.26286E-01   -0.56928E-01   973   0.339E+00    0.779E-01
RMM:   3    -0.768048990388E+02    0.76506E-02   -0.72197E-02  1195   0.109E+00    0.560E-01
RMM:   4    -0.768016746883E+02    0.32244E-02   -0.30108E-02  1073   0.571E-01    0.134E-01
RMM:   5    -0.768023645011E+02   -0.68981E-03   -0.10424E-02  1270   0.330E-01    0.814E-02
RMM:   6    -0.768027209725E+02   -0.35647E-03   -0.52432E-03  1145   0.217E-01    0.285E-02
RMM:   7    -0.768028988020E+02   -0.17783E-03   -0.24741E-03  1132   0.153E-01    0.158E-02
RMM:   8    -0.768030226721E+02   -0.12387E-03   -0.13811E-03  1085   0.111E-01    0.636E-03
RMM:   9    -0.768030849501E+02   -0.62278E-04   -0.66781E-04  1011   0.808E-02    0.303E-03
RMM:  10    -0.768031081676E+02   -0.23217E-04   -0.26008E-04   761   0.614E-02    0.190E-03
RMM:  11    -0.768031156879E+02   -0.75203E-05   -0.10983E-04   660   0.538E-02
  50 F= -.76803116E+02 E0= -.76803116E+02  d E =-.878217E-02
       N       E                     dE             d eps       ncg     rms          rms(c)
DAV:   1    -0.768094280299E+02   -0.63199E-02   -0.75711E+00   768   0.130E+01    0.164E+00
RMM:   2    -0.768236599951E+02   -0.14232E-01   -0.31117E-01   970   0.249E+00    0.590E-01
RMM:   3    -0.768184823647E+02    0.51776E-02   -0.33584E-02  1175   0.764E-01    0.442E-01
RMM:   4    -0.768166317596E+02    0.18506E-02   -0.14729E-02  1041   0.393E-01    0.105E-01
RMM:   5    -0.768169190524E+02   -0.28729E-03   -0.47169E-03  1244   0.224E-01    0.625E-02
RMM:   6    -0.768170723800E+02   -0.15333E-03   -0.24718E-03  1116   0.146E-01    0.227E-02
RMM:   7    -0.768171413748E+02   -0.68995E-04   -0.10984E-03  1086   0.102E-01    0.114E-02
RMM:   8    -0.768171899346E+02   -0.48560E-04   -0.55858E-04   958   0.745E-02    0.539E-03
RMM:   9    -0.768172066388E+02   -0.16704E-04   -0.19572E-04   730   0.575E-02
  51 F= -.76817207E+02 E0= -.76817207E+02  d E =-.228731E-01
       N       E                     dE             d eps       ncg     rms          rms(c)
DAV:   1    -0.768210227397E+02   -0.38328E-02   -0.15690E-01   800   0.187E+00    0.206E-01
RMM:   2    -0.768214152567E+02   -0.39252E-03   -0.62163E-03   950   0.356E-01    0.727E-02
RMM:   3    -0.768213280264E+02    0.87230E-04   -0.51846E-04  1118   0.101E-01    0.542E-02
RMM:   4    -0.768212981065E+02    0.29920E-04   -0.18385E-04   880   0.445E-02    0.156E-02
RMM:   5    -0.768212943760E+02    0.37305E-05    0.10971E-05   464   0.267E-02
  52 F= -.76821294E+02 E0= -.76821294E+02  d E =-.408774E-02
       N       E                     dE             d eps       ncg     rms          rms(c)
DAV:   1    -0.768275604670E+02   -0.62624E-02   -0.13963E+00   768   0.558E+00    0.602E-01
RMM:   2    -0.768311559739E+02   -0.35955E-02   -0.56373E-02   974   0.108E+00    0.219E-01
RMM:   3    -0.768308949043E+02    0.26107E-03   -0.75888E-03  1227   0.350E-01    0.169E-01
RMM:   4    -0.768307103486E+02    0.18456E-03   -0.29267E-03  1125   0.167E-01    0.515E-02
RMM:   5    -0.768307782819E+02   -0.67933E-04   -0.10637E-03  1141   0.102E-01    0.248E-02
RMM:   6    -0.768308190249E+02   -0.40743E-04   -0.54037E-04  1050   0.716E-02    0.819E-03
RMM:   7    -0.768308278612E+02   -0.88362E-05   -0.14395E-04   687   0.523E-02
  53 F= -.76830828E+02 E0= -.76830828E+02  d E =-.136212E-01
       N       E                     dE             d eps       ncg     rms          rms(c)
DAV:   1    -0.768252599459E+02    0.55591E-02   -0.55677E+00   768   0.111E+01    0.118E+00
RMM:   2    -0.768399149272E+02   -0.14655E-01   -0.22695E-01   972   0.217E+00    0.442E-01
RMM:   3    -0.768388856759E+02    0.10293E-02   -0.31234E-02  1237   0.708E-01    0.345E-01
RMM:   4    -0.768381089436E+02    0.77673E-03   -0.11837E-02  1148   0.341E-01    0.104E-01
RMM:   5    -0.768383690638E+02   -0.26012E-03   -0.42262E-03  1200   0.207E-01    0.495E-02
RMM:   6    -0.768385315895E+02   -0.16253E-03   -0.22061E-03  1146   0.144E-01    0.171E-02
RMM:   7    -0.768386167239E+02   -0.85134E-04   -0.10873E-03  1096   0.102E-01    0.105E-02
RMM:   8    -0.768386688828E+02   -0.52159E-04   -0.58849E-04   964   0.767E-02    0.331E-03
RMM:   9    -0.768386907651E+02   -0.21882E-04   -0.24770E-04   779   0.595E-02    0.178E-03
RMM:  10    -0.768386972416E+02   -0.64766E-05   -0.97372E-05   662   0.518E-02
  54 F= -.76838697E+02 E0= -.76838697E+02  d E =-.214906E-01
       N       E                     dE             d eps       ncg     rms          rms(c)
DAV:   1    -0.768421820725E+02   -0.34913E-02   -0.37410E-01   816   0.296E+00    0.254E-01
RMM:   2    -0.768429258922E+02   -0.74382E-03   -0.12334E-02  1009   0.503E-01    0.933E-02
RMM:   3    -0.768429135504E+02    0.12342E-04   -0.21647E-03  1198   0.189E-01    0.684E-02
RMM:   4    -0.768428997107E+02    0.13840E-04   -0.10276E-03  1141   0.107E-01    0.174E-02
RMM:   5    -0.768429269700E+02   -0.27259E-04   -0.36830E-04   925   0.694E-02    0.914E-03
RMM:   6    -0.768429360891E+02   -0.91192E-05   -0.13350E-04   736   0.537E-02
  55 F= -.76842936E+02 E0= -.76842936E+02  d E =-.423885E-02
       N       E                     dE             d eps       ncg     rms          rms(c)
DAV:   1    -0.768473257075E+02   -0.43987E-02   -0.33689E+00   768   0.888E+00    0.760E-01
RMM:   2    -0.768534274663E+02   -0.61018E-02   -0.10486E-01  1002   0.149E+00    0.279E-01
RMM:   3    -0.768533197943E+02    0.10767E-03   -0.17487E-02  1225   0.536E-01    0.208E-01
RMM:   4    -0.768530596360E+02    0.26016E-03   -0.77760E-03  1151   0.287E-01    0.524E-02
RMM:   5    -0.768532881041E+02   -0.22847E-03   -0.30702E-03  1229   0.180E-01    0.293E-02
RMM:   6    -0.768534134872E+02   -0.12538E-03   -0.15324E-03  1148   0.124E-01    0.110E-02
RMM:   7    -0.768534755118E+02   -0.62025E-04   -0.72230E-04  1096   0.899E-02    0.673E-03
RMM:   8    -0.768535072486E+02   -0.31737E-04   -0.35657E-04   849   0.685E-02    0.216E-03
RMM:   9    -0.768535143996E+02   -0.71510E-05   -0.10098E-04   687   0.569E-02
  56 F= -.76853514E+02 E0= -.76853514E+02  d E =-.148172E-01
       N       E                     dE             d eps       ncg     rms          rms(c)
DAV:   1    -0.768398596903E+02    0.13648E-01   -0.13415E+01   768   0.177E+01    0.153E+00
RMM:   2    -0.768645806480E+02   -0.24721E-01   -0.42420E-01  1002   0.298E+00    0.558E-01
RMM:   3    -0.768645675779E+02    0.13070E-04   -0.72711E-02  1233   0.107E+00    0.419E-01
RMM:   4    -0.768634652584E+02    0.11023E-02   -0.29785E-02  1178   0.568E-01    0.111E-01
RMM:   5    -0.768643034846E+02   -0.83823E-03   -0.11491E-02  1285   0.349E-01    0.583E-02
RMM:   6    -0.768647605031E+02   -0.45702E-03   -0.56769E-03  1205   0.239E-01    0.225E-02
RMM:   7    -0.768649993914E+02   -0.23889E-03   -0.27882E-03  1173   0.171E-01    0.130E-02
RMM:   8    -0.768651604748E+02   -0.16108E-03   -0.17370E-03  1174   0.128E-01    0.421E-03
RMM:   9    -0.768652353098E+02   -0.74835E-04   -0.78320E-04  1086   0.919E-02    0.352E-03
RMM:  10    -0.768652692024E+02   -0.33893E-04   -0.36980E-04   860   0.705E-02    0.203E-03
RMM:  11    -0.768652799982E+02   -0.10796E-04   -0.14054E-04   736   0.599E-02
  57 F= -.76865280E+02 E0= -.76865280E+02  d E =-.265828E-01
       N       E                     dE             d eps       ncg     rms          rms(c)
DAV:   1    -0.768682009028E+02   -0.29317E-02   -0.16943E+00   768   0.643E+00    0.427E-01
RMM:   2    -0.768725137217E+02   -0.43128E-02   -0.53115E-02  1012   0.104E+00    0.136E-01
RMM:   3    -0.768730111287E+02   -0.49741E-03   -0.86786E-03  1217   0.373E-01    0.987E-02
RMM:   4    -0.768731184845E+02   -0.10736E-03   -0.31595E-03  1226   0.189E-01    0.392E-02
RMM:   5    -0.768732629189E+02   -0.14443E-03   -0.16634E-03  1184   0.127E-01    0.198E-02
RMM:   6    -0.768733290077E+02   -0.66089E-04   -0.71640E-04  1084   0.864E-02    0.741E-03
RMM:   7    -0.768733493553E+02   -0.20348E-04   -0.25609E-04   878   0.646E-02    0.432E-03
RMM:   8    -0.768733574168E+02   -0.80616E-05   -0.11757E-04   750   0.560E-02
  58 F= -.76873357E+02 E0= -.76873357E+02  d E =-.807742E-02
       N       E                     dE             d eps       ncg     rms          rms(c)
DAV:   1    -0.768397587667E+02    0.33591E-01   -0.14341E+01   768   0.187E+01    0.130E+00
RMM:   2    -0.768761338677E+02   -0.36375E-01   -0.45319E-01  1006   0.303E+00    0.391E-01
RMM:   3    -0.768803794844E+02   -0.42456E-02   -0.74422E-02  1248   0.106E+00    0.277E-01
RMM:   4    -0.768810917132E+02   -0.71223E-03   -0.23898E-02  1258   0.508E-01    0.121E-01
RMM:   5    -0.768821012582E+02   -0.10095E-02   -0.12008E-02  1288   0.334E-01    0.622E-02
RMM:   6    -0.768825845384E+02   -0.48328E-03   -0.52776E-03  1236   0.227E-01    0.219E-02
RMM:   7    -0.768827937911E+02   -0.20925E-03   -0.24149E-03  1180   0.159E-01    0.119E-02
RMM:   8    -0.768829386264E+02   -0.14484E-03   -0.15559E-03  1176   0.119E-01    0.629E-03
RMM:   9    -0.768829927742E+02   -0.54148E-04   -0.56822E-04   992   0.847E-02    0.312E-03
RMM:  10    -0.768830207974E+02   -0.28023E-04   -0.31616E-04   894   0.684E-02    0.208E-03
RMM:  11    -0.768830256291E+02   -0.48316E-05   -0.78765E-05   673   0.584E-02
  59 F= -.76883026E+02 E0= -.76883026E+02  d E =-.177456E-01
       N       E                     dE             d eps       ncg     rms          rms(c)
DAV:   1    -0.768827017647E+02    0.31903E-03   -0.21114E+00   768   0.724E+00    0.281E-01
RMM:   2    -0.768873764499E+02   -0.46747E-02   -0.54731E-02  1015   0.106E+00    0.110E-01
RMM:   3    -0.768881590656E+02   -0.78262E-03   -0.97681E-03  1230   0.385E-01    0.855E-02
RMM:   4    -0.768882958881E+02   -0.13682E-03   -0.33538E-03  1239   0.195E-01    0.378E-02
RMM:   5    -0.768884461232E+02   -0.15024E-03   -0.17194E-03  1215   0.131E-01    0.193E-02
RMM:   6    -0.768885111641E+02   -0.65041E-04   -0.76628E-04  1140   0.905E-02    0.791E-03
RMM:   7    -0.768885322679E+02   -0.21104E-04   -0.26197E-04   820   0.664E-02    0.368E-03
RMM:   8    -0.768885430483E+02   -0.10780E-04   -0.14960E-04   768   0.579E-02
  60 F= -.76888543E+02 E0= -.76888543E+02  d E =-.551742E-02
       N       E                     dE             d eps       ncg     rms          rms(c)
DAV:   1    -0.768466671285E+02    0.41865E-01   -0.18920E+01   768   0.217E+01    0.905E-01
RMM:   2    -0.768896280582E+02   -0.42961E-01   -0.50842E-01  1014   0.317E+00    0.335E-01
RMM:   3    -0.768976153854E+02   -0.79873E-02   -0.96095E-02  1248   0.115E+00    0.262E-01
RMM:   4    -0.768987696983E+02   -0.11543E-02   -0.28242E-02  1279   0.568E-01    0.125E-01
RMM:   5    -0.768998754151E+02   -0.11057E-02   -0.13197E-02  1268   0.361E-01    0.622E-02
RMM:   6    -0.769003926188E+02   -0.51720E-03   -0.59410E-03  1294   0.248E-01    0.225E-02
RMM:   7    -0.769006399383E+02   -0.24732E-03   -0.27235E-03  1218   0.168E-01    0.111E-02
RMM:   8    -0.769007938951E+02   -0.15396E-03   -0.16416E-03  1173   0.122E-01    0.561E-03
RMM:   9    -0.769008501452E+02   -0.56250E-04   -0.60225E-04  1022   0.861E-02    0.334E-03
RMM:  10    -0.769008819493E+02   -0.31804E-04   -0.35657E-04   891   0.690E-02    0.207E-03
RMM:  11    -0.769008883587E+02   -0.64094E-05   -0.97426E-05   706   0.580E-02
  61 F= -.76900888E+02 E0= -.76900888E+02  d E =-.178627E-01
       N       E                     dE             d eps       ncg     rms          rms(c)
DAV:   1    -0.766414900988E+02    0.25939E+00   -0.74185E+01   768   0.431E+01    0.207E+00
RMM:   2    -0.768412884032E+02   -0.19980E+00   -0.23816E+00  1012   0.651E+00    0.695E-01
RMM:   3    -0.768916565074E+02   -0.50368E-01   -0.57355E-01  1244   0.248E+00    0.568E-01
RMM:   4    -0.768984909794E+02   -0.68345E-02   -0.13459E-01  1287   0.125E+00    0.312E-01
RMM:   5    -0.769024889908E+02   -0.39980E-02   -0.52558E-02  1276   0.756E-01    0.150E-01
RMM:   6    -0.769045827961E+02   -0.20938E-02   -0.23989E-02  1308   0.496E-01    0.360E-02
RMM:   7    -0.769054539972E+02   -0.87120E-03   -0.92289E-03  1269   0.314E-01    0.221E-02
RMM:   8    -0.769059305098E+02   -0.47651E-03   -0.50649E-03  1276   0.223E-01    0.106E-02
RMM:   9    -0.769061502443E+02   -0.21973E-03   -0.23256E-03  1207   0.155E-01    0.539E-03
RMM:  10    -0.769062741865E+02   -0.12394E-03   -0.13086E-03  1145   0.114E-01    0.422E-03
RMM:  11    -0.769063277710E+02   -0.53584E-04   -0.56715E-04   992   0.839E-02    0.254E-03
RMM:  12    -0.769063498092E+02   -0.22038E-04   -0.25589E-04   832   0.678E-02    0.256E-03
RMM:  13    -0.769063583939E+02   -0.85847E-05   -0.12370E-04   748   0.601E-02
  62 F= -.76906358E+02 E0= -.76906358E+02  d E =-.233328E-01
       N       E                     dE             d eps       ncg     rms          rms(c)
DAV:   1    -0.768958405105E+02    0.10509E-01   -0.62750E+00   768   0.120E+01    0.947E-01
RMM:   2    -0.769140601478E+02   -0.18220E-01   -0.19927E-01  1003   0.197E+00    0.239E-01
RMM:   3    -0.769154573149E+02   -0.13972E-02   -0.30257E-02  1262   0.681E-01    0.216E-01
RMM:   4    -0.769156806381E+02   -0.22332E-03   -0.95916E-03  1251   0.316E-01    0.991E-02
RMM:   5    -0.769160578119E+02   -0.37717E-03   -0.46181E-03  1206   0.207E-01    0.373E-02
RMM:   6    -0.769162540011E+02   -0.19619E-03   -0.21263E-03  1193   0.142E-01    0.836E-03
RMM:   7    -0.769163412936E+02   -0.87292E-04   -0.92435E-04  1098   0.988E-02    0.723E-03
RMM:   8    -0.769163830560E+02   -0.41762E-04   -0.45809E-04   948   0.749E-02    0.336E-03
RMM:   9    -0.769163951337E+02   -0.12078E-04   -0.15573E-04   764   0.609E-02
  63 F= -.76916395E+02 E0= -.76916395E+02  d E =-.100367E-01
       N       E                     dE             d eps       ncg     rms          rms(c)
DAV:   1    -0.769138054356E+02    0.25776E-02   -0.10034E+00   800   0.479E+00    0.379E-01
RMM:   2    -0.769167387543E+02   -0.29333E-02   -0.31989E-02  1006   0.794E-01    0.934E-02
RMM:   3    -0.769169763283E+02   -0.23757E-03   -0.49494E-03  1243   0.281E-01    0.797E-02
RMM:   4    -0.769170303702E+02   -0.54042E-04   -0.18012E-03  1205   0.138E-01    0.305E-02
RMM:   5    -0.769171079697E+02   -0.77600E-04   -0.89255E-04  1102   0.926E-02    0.128E-02
RMM:   6    -0.769171353508E+02   -0.27381E-04   -0.30477E-04   835   0.655E-02    0.415E-03
RMM:   7    -0.769171374179E+02   -0.20671E-05   -0.51230E-05   641   0.538E-02
  64 F= -.76917137E+02 E0= -.76917137E+02  d E =-.107790E-01
       N       E                     dE             d eps       ncg     rms          rms(c)
DAV:   1    -0.769192888510E+02   -0.21535E-02   -0.35778E+00   768   0.837E+00    0.616E-01
RMM:   2    -0.769283519211E+02   -0.90631E-02   -0.11893E-01   983   0.144E+00    0.245E-01
RMM:   3    -0.769289552766E+02   -0.60336E-03   -0.18230E-02  1241   0.495E-01    0.206E-01
RMM:   4    -0.769289172163E+02    0.38060E-04   -0.56636E-03  1164   0.234E-01    0.823E-02
RMM:   5    -0.769291052968E+02   -0.18808E-03   -0.24649E-03  1174   0.150E-01    0.370E-02
RMM:   6    -0.769292030393E+02   -0.97743E-04   -0.13370E-03  1132   0.108E-01    0.162E-02
RMM:   7    -0.769292462282E+02   -0.43189E-04   -0.58044E-04   980   0.770E-02    0.686E-03
RMM:   8    -0.769292733973E+02   -0.27169E-04   -0.31249E-04   811   0.597E-02    0.482E-03
RMM:   9    -0.769292754012E+02   -0.20039E-05   -0.44646E-05   580   0.490E-02
  65 F= -.76929275E+02 E0= -.76929275E+02  d E =-.121380E-01
       N       E                     dE             d eps       ncg     rms          rms(c)
DAV:   1    -0.768677594678E+02    0.61514E-01   -0.24463E+01   768   0.220E+01    0.177E+00
RMM:   2    -0.769339340501E+02   -0.66175E-01   -0.87631E-01   977   0.382E+00    0.625E-01
RMM:   3    -0.769404869523E+02   -0.65529E-02   -0.15035E-01  1234   0.132E+00    0.529E-01
RMM:   4    -0.769403574145E+02    0.12954E-03   -0.39124E-02  1188   0.625E-01    0.231E-01
RMM:   5    -0.769414966327E+02   -0.11392E-02   -0.15679E-02  1216   0.387E-01    0.105E-01
RMM:   6    -0.769421139258E+02   -0.61729E-03   -0.78498E-03  1203   0.269E-01    0.397E-02
RMM:   7    -0.769424546685E+02   -0.34074E-03   -0.39151E-03  1180   0.187E-01    0.181E-02
RMM:   8    -0.769426748985E+02   -0.22023E-03   -0.23643E-03  1109   0.135E-01    0.101E-02
RMM:   9    -0.769427630224E+02   -0.88124E-04   -0.91150E-04  1050   0.935E-02    0.634E-03
RMM:  10    -0.769428041680E+02   -0.41146E-04   -0.45161E-04   833   0.718E-02    0.375E-03
RMM:  11    -0.769428207507E+02   -0.16583E-04   -0.20277E-04   792   0.605E-02    0.254E-03
RMM:  12    -0.769428265131E+02   -0.57625E-05   -0.92764E-05   686   0.541E-02
  66 F= -.76942827E+02 E0= -.76942827E+02  d E =-.256891E-01
       N       E                     dE             d eps       ncg     rms          rms(c)
DAV:   1    -0.769405976717E+02    0.22231E-02   -0.38357E+00   768   0.866E+00    0.903E-01
RMM:   2    -0.769514420284E+02   -0.10844E-01   -0.15517E-01   968   0.166E+00    0.312E-01
RMM:   3    -0.769507662213E+02    0.67581E-03   -0.19171E-02  1183   0.521E-01    0.289E-01
RMM:   4    -0.769503506541E+02    0.41557E-03   -0.63400E-03  1118   0.243E-01    0.113E-01
RMM:   5    -0.769504745819E+02   -0.12393E-03   -0.24034E-03  1163   0.153E-01    0.419E-02
RMM:   6    -0.769505604307E+02   -0.85849E-04   -0.12461E-03  1140   0.105E-01    0.126E-02
RMM:   7    -0.769506086465E+02   -0.48216E-04   -0.55889E-04   943   0.743E-02    0.612E-03
RMM:   8    -0.769506287076E+02   -0.20061E-04   -0.23428E-04   787   0.581E-02    0.330E-03
RMM:   9    -0.769506356721E+02   -0.69646E-05   -0.10266E-04   678   0.501E-02
  67 F= -.76950636E+02 E0= -.76950636E+02  d E =-.780916E-02
       N       E                     dE             d eps       ncg     rms          rms(c)
DAV:   1    -0.769487177889E+02    0.19109E-02   -0.11547E+00   768   0.475E+00    0.502E-01
RMM:   2    -0.769519442679E+02   -0.32265E-02   -0.46223E-02   969   0.914E-01    0.169E-01
RMM:   3    -0.769518135679E+02    0.13070E-03   -0.60215E-03  1194   0.292E-01    0.154E-01
RMM:   4    -0.769517047368E+02    0.10883E-03   -0.20974E-03  1091   0.138E-01    0.592E-02
RMM:   5    -0.769517518449E+02   -0.47108E-04   -0.82132E-04  1145   0.903E-02    0.229E-02
RMM:   6    -0.769517796408E+02   -0.27796E-04   -0.38987E-04   942   0.626E-02    0.652E-03
RMM:   7    -0.769517883902E+02   -0.87494E-05   -0.12102E-04   704   0.487E-02
  68 F= -.76951788E+02 E0= -.76951788E+02  d E =-.896188E-02
       N       E                     dE             d eps       ncg     rms          rms(c)
DAV:   1    -0.769572703996E+02   -0.54908E-02   -0.16640E+00   768   0.588E+00    0.626E-01
RMM:   2    -0.769583191359E+02   -0.10487E-02   -0.69104E-02   964   0.113E+00    0.282E-01
RMM:   3    -0.769576031334E+02    0.71600E-03   -0.11339E-02  1177   0.388E-01    0.182E-01
RMM:   4    -0.769574075474E+02    0.19559E-03   -0.31705E-03  1174   0.179E-01    0.837E-02
RMM:   5    -0.769574711239E+02   -0.63577E-04   -0.13305E-03  1157   0.112E-01    0.403E-02
RMM:   6    -0.769575224089E+02   -0.51285E-04   -0.64159E-04   997   0.755E-02    0.109E-02
RMM:   7    -0.769575412027E+02   -0.18794E-04   -0.23893E-04   763   0.561E-02    0.658E-03
RMM:   8    -0.769575492922E+02   -0.80895E-05   -0.11387E-04   682   0.473E-02
  69 F= -.76957549E+02 E0= -.76957549E+02  d E =-.576090E-02
       N       E                     dE             d eps       ncg     rms          rms(c)
DAV:   1    -0.769612509433E+02   -0.37097E-02   -0.70159E+00   768   0.121E+01    0.133E+00
RMM:   2    -0.769652112909E+02   -0.39603E-02   -0.28989E-01   964   0.233E+00    0.573E-01
RMM:   3    -0.769619979196E+02    0.32134E-02   -0.45527E-02  1177   0.776E-01    0.369E-01
RMM:   4    -0.769611805040E+02    0.81742E-03   -0.12441E-02  1183   0.352E-01    0.175E-01
RMM:   5    -0.769614058682E+02   -0.22536E-03   -0.50984E-03  1218   0.218E-01    0.835E-02
RMM:   6    -0.769615985921E+02   -0.19272E-03   -0.24540E-03  1166   0.142E-01    0.221E-02
RMM:   7    -0.769616979158E+02   -0.99324E-04   -0.11605E-03  1064   0.100E-01    0.106E-02
RMM:   8    -0.769617501448E+02   -0.52229E-04   -0.58559E-04   919   0.743E-02    0.866E-03
RMM:   9    -0.769617702177E+02   -0.20073E-04   -0.24000E-04   770   0.585E-02    0.291E-03
RMM:  10    -0.769617773897E+02   -0.71720E-05   -0.10685E-04   726   0.514E-02
  70 F= -.76961777E+02 E0= -.76961777E+02  d E =-.998900E-02
       N       E                     dE             d eps       ncg     rms          rms(c)
DAV:   1    -0.769639285904E+02   -0.21584E-02   -0.60255E-01   864   0.381E+00    0.495E-01
RMM:   2    -0.769643984089E+02   -0.46982E-03   -0.24017E-02   986   0.686E-01    0.170E-01
RMM:   3    -0.769640739236E+02    0.32449E-03   -0.39283E-03  1189   0.237E-01    0.105E-01
RMM:   4    -0.769639986063E+02    0.75317E-04   -0.12461E-03  1103   0.114E-01    0.405E-02
RMM:   5    -0.769640312354E+02   -0.32629E-04   -0.53927E-04  1099   0.737E-02    0.206E-02
RMM:   6    -0.769640378811E+02   -0.66457E-05   -0.10741E-04   615   0.508E-02
  71 F= -.76964038E+02 E0= -.76964038E+02  d E =-.226049E-02
       N       E                     dE             d eps       ncg     rms          rms(c)
DAV:   1    -0.769644094906E+02   -0.37826E-03   -0.26994E-01   848   0.255E+00    0.335E-01
RMM:   2    -0.769646225663E+02   -0.21308E-03   -0.10747E-02   994   0.462E-01    0.114E-01
RMM:   3    -0.769645135418E+02    0.10902E-03   -0.19130E-03  1186   0.165E-01    0.706E-02
RMM:   4    -0.769644849780E+02    0.28564E-04   -0.63091E-04  1088   0.827E-02    0.274E-02
RMM:   5    -0.769644911980E+02   -0.62200E-05   -0.15404E-04   717   0.546E-02
  72 F= -.76964491E+02 E0= -.76964491E+02  d E =-.271381E-02
       N       E                     dE             d eps       ncg     rms          rms(c)
DAV:   1    -0.769652875768E+02   -0.80260E-03   -0.51167E-01   784   0.347E+00    0.355E-01
RMM:   2    -0.769667485764E+02   -0.14610E-02   -0.20993E-02   992   0.652E-01    0.129E-01
RMM:   3    -0.769666842666E+02    0.64310E-04   -0.29444E-03  1235   0.213E-01    0.996E-02
RMM:   4    -0.769666518271E+02    0.32440E-04   -0.11507E-03  1088   0.104E-01    0.232E-02
RMM:   5    -0.769666739600E+02   -0.22133E-04   -0.35429E-04   926   0.649E-02    0.116E-02
RMM:   6    -0.769666781209E+02   -0.41610E-05   -0.10787E-04   687   0.498E-02
  73 F= -.76966678E+02 E0= -.76966678E+02  d E =-.218692E-02
       N       E                     dE             d eps       ncg     rms          rms(c)
DAV:   1    -0.769666607390E+02    0.13221E-04   -0.14609E-01   896   0.185E+00    0.191E-01
RMM:   2    -0.769670971424E+02   -0.43640E-03   -0.61276E-03   997   0.352E-01    0.688E-02
RMM:   3    -0.769670921720E+02    0.49704E-05   -0.95861E-04  1212   0.121E-01    0.527E-02
RMM:   4    -0.769670893065E+02    0.28655E-05   -0.39748E-04  1041   0.629E-02    0.122E-02
RMM:   5    -0.769670833531E+02    0.59534E-05    0.22569E-05   468   0.416E-02
  74 F= -.76967083E+02 E0= -.76967083E+02  d E =-.259216E-02
       N       E                     dE             d eps       ncg     rms          rms(c)
DAV:   1    -0.769674560749E+02   -0.36677E-03   -0.56953E-02   856   0.113E+00    0.182E-01
RMM:   2    -0.769675938101E+02   -0.13774E-03   -0.28243E-03   981   0.238E-01    0.496E-02
RMM:   3    -0.769675583127E+02    0.35497E-04   -0.38984E-04  1124   0.791E-02    0.361E-02
RMM:   4    -0.769675507855E+02    0.75272E-05   -0.13398E-04   878   0.442E-02
  75 F= -.76967551E+02 E0= -.76967551E+02  d E =-.467432E-03
       N       E                     dE             d eps       ncg     rms          rms(c)
DAV:   1    -0.769675699044E+02   -0.11592E-04   -0.39528E-02   832   0.943E-01    0.153E-01
RMM:   2    -0.769676656161E+02   -0.95712E-04   -0.20073E-03   978   0.202E-01    0.429E-02
RMM:   3    -0.769676456946E+02    0.19921E-04   -0.29966E-04  1114   0.688E-02    0.318E-02
RMM:   4    -0.769676314825E+02    0.14212E-04   -0.13435E-05   596   0.397E-02
  76 F= -.76967631E+02 E0= -.76967631E+02  d E =-.548129E-03
       N       E                     dE             d eps       ncg     rms          rms(c)
DAV:   1    -0.769679114001E+02   -0.26571E-03   -0.56613E-02   784   0.110E+00    0.137E-01
RMM:   2    -0.769679545896E+02   -0.43190E-04   -0.24987E-03   976   0.217E-01    0.487E-02
RMM:   3    -0.769679296871E+02    0.24902E-04   -0.51718E-04  1164   0.856E-02    0.296E-02
RMM:   4    -0.769679162662E+02    0.13421E-04   -0.15401E-05   553   0.451E-02
  77 F= -.76967916E+02 E0= -.76967916E+02  d E =-.284784E-03
       N       E                     dE             d eps       ncg     rms          rms(c)
DAV:   1    -0.769678614999E+02    0.68187E-04   -0.27889E-01   768   0.243E+00    0.299E-01
RMM:   2    -0.769679919048E+02   -0.13040E-03   -0.11699E-02   978   0.474E-01    0.109E-01
RMM:   3    -0.769678518985E+02    0.14001E-03   -0.22704E-03  1191   0.178E-01    0.667E-02
RMM:   4    -0.769678463439E+02    0.55546E-05   -0.68878E-04  1160   0.881E-02    0.361E-02
RMM:   5    -0.769678522522E+02   -0.59083E-05   -0.16724E-04   735   0.578E-02
  78 F= -.76967852E+02 E0= -.76967852E+02  d E =-.220770E-03
       N       E                     dE             d eps       ncg     rms          rms(c)
DAV:   1    -0.769681338143E+02   -0.28747E-03   -0.59503E-02   768   0.114E+00    0.260E-01
RMM:   2    -0.769683552923E+02   -0.22148E-03   -0.34787E-03   967   0.248E-01    0.503E-02
RMM:   3    -0.769682927245E+02    0.62568E-04   -0.29188E-04  1041   0.737E-02    0.324E-02
RMM:   4    -0.769682831319E+02    0.95926E-05   -0.14292E-04   882   0.419E-02
  79 F= -.76968283E+02 E0= -.76968283E+02  d E =-.430880E-03
       N       E                     dE             d eps       ncg     rms          rms(c)
DAV:   1    -0.769682973447E+02   -0.46202E-05   -0.38652E-04  1080   0.803E-02    0.186E-02
RMM:   2    -0.769682975636E+02   -0.21892E-06   -0.13153E-05   421   0.165E-02
  80 F= -.76968298E+02 E0= -.76968298E+02  d E =-.445311E-03
       N       E                     dE             d eps       ncg     rms          rms(c)
DAV:   1    -0.769686560919E+02   -0.35875E-03   -0.72933E-02   768   0.125E+00    0.123E-01
RMM:   2    -0.769687127308E+02   -0.56639E-04   -0.23715E-03   977   0.217E-01    0.489E-02
RMM:   3    -0.769686617652E+02    0.50966E-04   -0.26497E-04  1029   0.673E-02    0.291E-02
RMM:   4    -0.769686531109E+02    0.86543E-05   -0.70701E-05   746   0.344E-02
  81 F= -.76968653E+02 E0= -.76968653E+02  d E =-.355547E-03
       N       E                     dE             d eps       ncg     rms          rms(c)
DAV:   1    -0.769686606186E+02    0.11466E-05   -0.13480E-01   768   0.170E+00    0.165E-01
RMM:   2    -0.769687845745E+02   -0.12396E-03   -0.45561E-03   978   0.299E-01    0.669E-02
RMM:   3    -0.769687056784E+02    0.78896E-04   -0.61395E-04  1106   0.989E-02    0.412E-02
RMM:   4    -0.769686996103E+02    0.60681E-05   -0.22323E-04   966   0.498E-02    0.191E-02
RMM:   5    -0.769686953116E+02    0.42987E-05    0.12672E-05   468   0.344E-02
  82 F= -.76968695E+02 E0= -.76968695E+02  d E =-.397748E-03
       N       E                     dE             d eps       ncg     rms          rms(c)
DAV:   1    -0.769687385156E+02   -0.38905E-04   -0.43728E-02   768   0.888E-01    0.779E-02
RMM:   2    -0.769688530285E+02   -0.11451E-03   -0.15012E-03   938   0.153E-01    0.254E-02
RMM:   3    -0.769688502936E+02    0.27350E-05   -0.17482E-04   836   0.558E-02
  83 F= -.76968850E+02 E0= -.76968850E+02  d E =-.154982E-03
       N       E                     dE             d eps       ncg     rms          rms(c)
DAV:   1    -0.769688226617E+02    0.30367E-04   -0.27922E-02   768   0.710E-01    0.599E-02
RMM:   2    -0.769688967570E+02   -0.74095E-04   -0.96923E-04   942   0.123E-01    0.216E-02
RMM:   3    -0.769688914523E+02    0.53048E-05   -0.63322E-05   604   0.472E-02
  84 F= -.76968891E+02 E0= -.76968891E+02  d E =-.196141E-03
