 vasp.5.4.4.18Apr17-6-g9f103f2a35 (build Feb 28 2020 14:15:47) complex          
  
 executed on             LinuxIFC date 2022.08.07  00:31:41
 running on   64 total cores
 distrk:  each k-point on   64 cores,    1 groups
 distr:  one band on NCORES_PER_BAND=  16 cores,    4 groups


--------------------------------------------------------------------------------------------------------


 INCAR:
 POTCAR:    PAW P 26Mar2009                       
 POTCAR:    PAW S 27Mar2009                       
 POTCAR:    PAW Li_sv 10Sep2004                   
 POTCAR:    PAW P 26Mar2009                       
   VRHFIN =P : s2p3                                                             
   LEXCH  = CA                                                                  
   EATOM  =   176.5121 eV,   12.9733 Ry                                         
                                                                                
   TITEL  = PAW P 26Mar2009                                                     
   LULTRA =        F    use ultrasoft PP ?                                      
   IUNSCR =        1    unscreen: 0-lin 1-nonlin 2-no                           
   RPACOR =    1.500    partial core radius                                     
   POMASS =   30.974; ZVAL   =    5.000    mass and valenz                      
   RCORE  =    1.900    outmost cutoff radius                                   
   RWIGS  =    2.330; RWIGS  =    1.233    wigner-seitz radius (au A)           
   ENMAX  =  255.155; ENMIN  =  191.366 eV                                      
   ICORE  =        2    local potential                                         
   LCOR   =        T    correct aug charges                                     
   LPAW   =        T    paw PP                                                  
   EAUG   =  342.924                                                            
   DEXC   =    0.000                                                            
   RMAX   =    1.935    core radius for proj-oper                               
   RAUG   =    1.300    factor for augmentation sphere                          
   RDEP   =    1.931    radius for radial grids                                 
   RDEPT  =    1.780    core radius for aug-charge                              
                                                                                
   Atomic configuration                                                         
    6 entries                                                                   
     n  l   j            E        occ.                                          
     1  0  0.50     -2072.7761   2.0000                                         
     2  0  0.50      -172.9483   2.0000                                         
     2  1  1.50      -124.4644   6.0000                                         
     3  0  0.50       -14.0086   2.0000                                         
     3  1  0.50        -5.6037   3.0000                                         
     3  2  1.50        -6.8029   0.0000                                         
   Description                                                                  
     l       E           TYP  RCUT    TYP  RCUT                                 
     0    -14.0086211     23  1.900                                             
     0    -11.8189335     23  1.900                                             
     1     -5.6037292     23  1.900                                             
     1     -0.3527308     23  1.900                                             
     2     -6.8029130     23  1.900                                             
  local pseudopotential read in
  partial core-charges read in
  partial kinetic energy density read in
  atomic valenz-charges read in
  non local Contribution for L=           0  read in
    real space projection operators read in
  non local Contribution for L=           0  read in
    real space projection operators read in
  non local Contribution for L=           1  read in
    real space projection operators read in
  non local Contribution for L=           1  read in
    real space projection operators read in
    PAW grid and wavefunctions read in
 
   number of l-projection  operators is LMAX  =           4
   number of lm-projection operators is LMMAX =           8
 
 POTCAR:    PAW S 27Mar2009                       
   VRHFIN =S : s2p4                                                             
   LEXCH  = CA                                                                  
   EATOM  =   277.3745 eV,   20.3864 Ry                                         
                                                                                
   TITEL  = PAW S 27Mar2009                                                     
   LULTRA =        F    use ultrasoft PP ?                                      
   IUNSCR =        1    unscreen: 0-lin 1-nonlin 2-no                           
   RPACOR =    1.500    partial core radius                                     
   POMASS =   32.066; ZVAL   =    6.000    mass and valenz                      
   RCORE  =    1.900    outmost cutoff radius                                   
   RWIGS  =    2.200; RWIGS  =    1.164    wigner-seitz radius (au A)           
   ENMAX  =  258.602; ENMIN  =  193.952 eV                                      
   ICORE  =        2    local potential                                         
   LCOR   =        T    correct aug charges                                     
   LPAW   =        T    paw PP                                                  
   EAUG   =  335.092                                                            
   DEXC   =    0.000                                                            
   RMAX   =    1.942    core radius for proj-oper                               
   RAUG   =    1.300    factor for augmentation sphere                          
   RDEP   =    1.954    radius for radial grids                                 
   RDEPT  =    1.744    core radius for aug-charge                              
                                                                                
   Atomic configuration                                                         
    6 entries                                                                   
     n  l   j            E        occ.                                          
     1  0  0.50     -2393.1495   2.0000                                         
     2  0  0.50      -210.5411   2.0000                                         
     2  1  1.50      -156.4410   6.0000                                         
     3  0  0.50       -17.2664   2.0000                                         
     3  1  0.50        -7.1129   4.0000                                         
     3  2  1.50        -8.1635   0.0000                                         
   Description                                                                  
     l       E           TYP  RCUT    TYP  RCUT                                 
     0    -17.2664422     23  1.900                                             
     0    -15.8420823     23  1.900                                             
     1     -7.1129072     23  1.900                                             
     1     -2.8398274     23  1.900                                             
     2     -8.1634956     23  1.900                                             
  local pseudopotential read in
  partial core-charges read in
  partial kinetic energy density read in
  atomic valenz-charges read in
  non local Contribution for L=           0  read in
    real space projection operators read in
  non local Contribution for L=           0  read in
    real space projection operators read in
  non local Contribution for L=           1  read in
    real space projection operators read in
  non local Contribution for L=           1  read in
    real space projection operators read in
    PAW grid and wavefunctions read in
 
   number of l-projection  operators is LMAX  =           4
   number of lm-projection operators is LMMAX =           8
 
 POTCAR:    PAW Li_sv 10Sep2004                   
   VRHFIN =Li: 1s2s                                                             
   LEXCH  = CA                                                                  
   EATOM  =   199.5738 eV,   14.6683 Ry                                         
                                                                                
   TITEL  = PAW Li_sv 10Sep2004                                                 
   LULTRA =        F    use ultrasoft PP ?                                      
   IUNSCR =        0    unscreen: 0-lin 1-nonlin 2-no                           
   RPACOR =    0.000    partial core radius                                     
   POMASS =    7.010; ZVAL   =    3.000    mass and valenz                      
   RCORE  =    1.700    outmost cutoff radius                                   
   RWIGS  =    2.050; RWIGS  =    1.085    wigner-seitz radius (au A)           
   ENMAX  =  498.387; ENMIN  =  373.790 eV                                      
   ICORE  =        2    local potential                                         
   LCOR   =        T    correct aug charges                                     
   LPAW   =        T    paw PP                                                  
   EAUG   =  628.945                                                            
   RMAX   =    1.732    core radius for proj-oper                               
   RAUG   =    1.300    factor for augmentation sphere                          
   RDEP   =    1.728    radius for radial grids                                 
   RDEPT  =    1.329    core radius for aug-charge                              
                                                                                
   Atomic configuration                                                         
    4 entries                                                                   
     n  l   j            E        occ.                                          
     1  0  0.50       -51.0884   2.0000                                         
     2  0  0.50        -2.8766   1.0000                                         
     2  1  0.50        -2.8708   0.0000                                         
     3  2  1.50        -1.3606   0.0000                                         
   Description                                                                  
     l       E           TYP  RCUT    TYP  RCUT                                 
     0    -51.0884324     23  1.400                                             
     0     -2.8766458     23  1.700                                             
     1     -2.8708293     23  1.400                                             
     2     -1.3605826     23  1.400                                             
  local pseudopotential read in
  atomic valenz-charges read in
  non local Contribution for L=           0  read in
    real space projection operators read in
  non local Contribution for L=           0  read in
    real space projection operators read in
  non local Contribution for L=           1  read in
    real space projection operators read in
    PAW grid and wavefunctions read in
 
   number of l-projection  operators is LMAX  =           3
   number of lm-projection operators is LMMAX =           5
 
 Optimization of the real space projectors (new method)

 maximal supplied QI-value         = 19.84
 optimisation between [QCUT,QGAM] = [ 10.32, 20.83] = [ 29.81,121.55] Ry 
 Optimized for a Real-space Cutoff    1.39 Angstroem

   l    n(q)    QCUT    max X(q) W(low)/X(q) W(high)/X(q)  e(spline) 
   0      9    10.318   158.476    0.64E-04    0.80E-04    0.60E-07
   0      9    10.318   128.097    0.63E-04    0.79E-04    0.60E-07
   1      8    10.318    73.217    0.18E-03    0.19E-03    0.20E-06
   1      8    10.318    48.248    0.18E-03    0.19E-03    0.19E-06
 Optimization of the real space projectors (new method)

 maximal supplied QI-value         = 19.84
 optimisation between [QCUT,QGAM] = [ 10.32, 20.83] = [ 29.81,121.55] Ry 
 Optimized for a Real-space Cutoff    1.39 Angstroem

   l    n(q)    QCUT    max X(q) W(low)/X(q) W(high)/X(q)  e(spline) 
   0      9    10.318   180.455    0.73E-04    0.81E-04    0.62E-07
   0      9    10.318   157.733    0.72E-04    0.81E-04    0.62E-07
   1      8    10.318    66.201    0.18E-03    0.20E-03    0.20E-06
   1      8    10.318    49.617    0.18E-03    0.20E-03    0.20E-06
 Optimization of the real space projectors (new method)

 maximal supplied QI-value         = 22.11
 optimisation between [QCUT,QGAM] = [ 10.39, 20.78] = [ 30.24,120.96] Ry 
 Optimized for a Real-space Cutoff    1.20 Angstroem

   l    n(q)    QCUT    max X(q) W(low)/X(q) W(high)/X(q)  e(spline) 
   0      7    10.392    10.443    0.77E-04    0.41E-05    0.30E-07
   0      7    10.392     8.514    0.20E-03    0.36E-04    0.67E-07
   1      7    10.392     5.406    0.20E-03    0.20E-03    0.12E-06
  PAW P 26Mar2009                       :
 energy of atom  1       EATOM= -176.5121
 kinetic energy error for atom=    0.0021 (will be added to EATOM!!)
  PAW S 27Mar2009                       :
 energy of atom  2       EATOM= -277.3745
 kinetic energy error for atom=    0.0041 (will be added to EATOM!!)
  PAW Li_sv 10Sep2004                   :
 energy of atom  3       EATOM= -199.5738
 kinetic energy error for atom=    0.0564 (will be added to EATOM!!)
 
 
 POSCAR: Good luck                               
  positions in cartesian coordinates
  No initial velocities read in
 exchange correlation table for  LEXCH =        2
   RHO(1)=    0.500       N(1)  =     2000
   RHO(2)=  100.500       N(2)  =     4000
 


--------------------------------------------------------------------------------------------------------


 ion  position               nearest neighbor table
   1  0.000  0.867  0.410-   7 2.02   3 2.04   6 2.04   9 2.06  11 2.39
   2  0.500  0.133  0.910-   8 2.02   4 2.04   5 2.04  10 2.06  12 2.39
   3  0.215  0.664  0.422-   1 2.04  13 2.28  11 2.33  14 2.39
   4  0.285  0.336  0.922-   2 2.04  14 2.28  12 2.33  13 2.39
   5  0.715  0.336  0.922-   2 2.04  15 2.28  12 2.33  16 2.39
   6  0.785  0.664  0.422-   1 2.04  16 2.28  11 2.33  15 2.39
   7  0.000  0.073  0.185-   1 2.02  14 2.13  15 2.13
   8  0.500  0.927  0.685-   2 2.02  13 2.13  16 2.13
   9  0.000  0.067  0.644-   1 2.06  11 2.67
  10  0.500  0.933  0.144-   2 2.06  12 2.67
  11  0.000  0.541  0.619-   3 2.33   6 2.33   1 2.39   9 2.67
  12  0.500  0.459  0.119-   4 2.33   5 2.33   2 2.39  10 2.67
  13  0.367  0.597  0.680-  16 2.09   8 2.13   3 2.28   4 2.39
  14  0.133  0.403  0.180-  15 2.09   7 2.13   4 2.28   3 2.39
  15  0.867  0.403  0.180-  14 2.09   7 2.13   5 2.28   6 2.39
  16  0.633  0.597  0.680-  13 2.09   8 2.13   6 2.28   5 2.39
 
  LATTYP: Found a simple orthorhombic cell.
 ALAT       =     5.6113739755
 B/A-ratio  =     1.3120083000
 C/A-ratio  =     1.4023780021
  
  Lattice vectors:
  
 A1 = (   0.0000000000,   5.6113739755,   0.0000000000)
 A2 = (   0.0000000000,   0.0000000000,  -7.3621692302)
 A3 = (  -7.8692674250,   0.0000000000,   0.0000000000)


Analysis of symmetry for initial positions (statically):
=====================================================================
 Subroutine PRICEL returns:
 Original cell was already a primitive cell.
 

 Routine SETGRP: Setting up the symmetry group for a 
 simple orthorhombic supercell.


 Subroutine GETGRP returns: Found  4 space group operations
 (whereof  2 operations were pure point group operations)
 out of a pool of  8 trial point group operations.


The static configuration has the point symmetry C_1h.
 The point group associated with its full space group is C_2v.


Analysis of symmetry for dynamics (positions and initial velocities):
=====================================================================
 Subroutine PRICEL returns:
 Original cell was already a primitive cell.
 

 Routine SETGRP: Setting up the symmetry group for a 
 simple orthorhombic supercell.


 Subroutine GETGRP returns: Found  4 space group operations
 (whereof  2 operations were pure point group operations)
 out of a pool of  8 trial point group operations.


The dynamic configuration has the point symmetry C_1h.
 The point group associated with its full space group is C_2v.


 Subroutine INISYM returns: Found  4 space group operations
 (whereof  2 operations are pure point group operations),
 and found     1 'primitive' translations

 
 
 KPOINTS: Automatic mesh                          

Automatic generation of k-mesh.
Space group operators:
 irot       det(A)        alpha          n_x          n_y          n_z        tau_x        tau_y        tau_z
    1     1.000000     0.000000     1.000000     0.000000     0.000000     0.000000     0.000000     0.000000
    2    -1.000000   180.000000     1.000000     0.000000     0.000000     0.000000     0.000000     0.000000
    3     1.000000   180.000000     0.000000     0.000000     1.000000    -0.500000     0.000000    -0.500000
    4    -1.000000   179.999999     0.000000     1.000000     0.000000    -0.500000     0.000000    -0.500000
 
 Subroutine IBZKPT returns following result:
 ===========================================
 
 Found      8 irreducible k-points:
 
 Following reciprocal coordinates:
            Coordinates               Weight
  0.125000  0.125000  0.125000      8.000000
  0.375000  0.125000  0.125000      8.000000
  0.125000  0.375000  0.125000      8.000000
  0.375000  0.375000  0.125000      8.000000
  0.125000  0.125000  0.375000      8.000000
  0.375000  0.125000  0.375000      8.000000
  0.125000  0.375000  0.375000      8.000000
  0.375000  0.375000  0.375000      8.000000
 
 Following cartesian coordinates:
            Coordinates               Weight
  0.015885  0.022276  0.016979      8.000000
  0.047654  0.022276  0.016979      8.000000
  0.015885  0.066829  0.016979      8.000000
  0.047654  0.066829  0.016979      8.000000
  0.015885  0.022276  0.050936      8.000000
  0.047654  0.022276  0.050936      8.000000
  0.015885  0.066829  0.050936      8.000000
  0.047654  0.066829  0.050936      8.000000
 
 TETIRR: Found    140 inequivalent tetrahedra from      384


--------------------------------------------------------------------------------------------------------




 Dimension of arrays:
   k-points           NKPTS =      8   k-points in BZ     NKDIM =      8   number of bands    NBANDS=     48
   number of dos      NEDOS =    301   number of ions     NIONS =     16
   non local maximal  LDIM  =      4   non local SUM 2l+1 LMDIM =      8
   total plane-waves  NPLWV = 108000
   max r-space proj   IRMAX =   3768   max aug-charges    IRDMAX=  10665
   dimension x,y,z NGX =    54 NGY =   40 NGZ =   50
   dimension x,y,z NGXF=   108 NGYF=   80 NGZF=  100
   support grid    NGXF=   108 NGYF=   80 NGZF=  100
   ions per type =               2   8   6
   NGX,Y,Z   is equivalent  to a cutoff of  11.41, 11.85, 11.29 a.u.
   NGXF,Y,Z  is equivalent  to a cutoff of  22.82, 23.70, 22.58 a.u.

 SYSTEM =  unknown system                          
 POSCAR =  Good luck                               

 Startparameter for this run:
   NWRITE =      2    write-flag & timer
   PREC   = accura    normal or accurate (medium, high low for compatibility)
   ISTART =      0    job   : 0-new  1-cont  2-samecut
   ICHARG =      2    charge: 1-file 2-atom 10-const
   ISPIN  =      1    spin polarized calculation?
   LNONCOLLINEAR =      F non collinear calculations
   LSORBIT =      F    spin-orbit coupling
   INIWAV =      1    electr: 0-lowe 1-rand  2-diag
   LASPH  =      F    aspherical Exc in radial PAW
   METAGGA=      F    non-selfconsistent MetaGGA calc.

 Electronic Relaxation 1
   ENCUT  =  420.0 eV  30.87 Ry    5.56 a.u.  13.15  9.38 12.30*2*pi/ulx,y,z
   ENINI  =  420.0     initial cutoff
   ENAUG  =  628.9 eV  augmentation charge cutoff
   NELM   =    100;   NELMIN=  2; NELMDL= -5     # of ELM steps 
   EDIFF  = 0.2E-04   stopping-criterion for ELM
   LREAL  =      T    real-space projection
   NLSPLINE    = F    spline interpolate recip. space projectors
   LCOMPAT=      F    compatible to vasp.4.4
   GGA_COMPAT  = T    GGA compatible to vasp.4.4-vasp.4.6
   LMAXPAW     = -100 max onsite density
   LMAXMIX     =    2 max onsite mixed and CHGCAR
   VOSKOWN=      0    Vosko Wilk Nusair interpolation
   ROPT   =   -0.00025  -0.00025  -0.00025
 Ionic relaxation
   EDIFFG = 0.2E-03   stopping-criterion for IOM
   NSW    =    100    number of steps for IOM
   NBLOCK =      1;   KBLOCK =    100    inner block; outer block 
   IBRION =      2    ionic relax: 0-MD 1-quasi-New 2-CG
   NFREE  =      1    steps in history (QN), initial steepest desc. (CG)
   ISIF   =      3    stress and relaxation
   IWAVPR =     11    prediction:  0-non 1-charg 2-wave 3-comb
   ISYM   =      2    0-nonsym 1-usesym 2-fastsym
   LCORR  =      T    Harris-Foulkes like correction to forces

   POTIM  = 0.5000    time-step for ionic-motion
   TEIN   =    0.0    initial temperature
   TEBEG  =    0.0;   TEEND  =   0.0 temperature during run
   SMASS  =  -3.00    Nose mass-parameter (am)
   estimated Nose-frequenzy (Omega)   =  0.10E-29 period in steps =****** mass=  -0.142E-26a.u.
   SCALEE = 1.0000    scale energy and forces
   NPACO  =    256;   APACO  = 16.0  distance and # of slots for P.C.
   PSTRESS=    0.0 pullay stress

  Mass of Ions in am
   POMASS =  30.97 32.07  7.01
  Ionic Valenz
   ZVAL   =   5.00  6.00  3.00
  Atomic Wigner-Seitz radii
   RWIGS  =  -1.00 -1.00 -1.00
  virtual crystal weights 
   VCA    =   1.00  1.00  1.00
   NELECT =      76.0000    total number of electrons
   NUPDOWN=      -1.0000    fix difference up-down

 DOS related values:
   EMIN   =  10.00;   EMAX   =-10.00  energy-range for DOS
   EFERMI =   0.00
   ISMEAR =    -5;   SIGMA  =   0.20  broadening in eV -4-tet -1-fermi 0-gaus

 Electronic relaxation 2 (details)
   IALGO  =     68    algorithm
   LDIAG  =      T    sub-space diagonalisation (order eigenvalues)
   LSUBROT=      F    optimize rotation matrix (better conditioning)
   TURBO    =      0    0=normal 1=particle mesh
   IRESTART =      0    0=no restart 2=restart with 2 vectors
   NREBOOT  =      0    no. of reboots
   NMIN     =      0    reboot dimension
   EREF     =   0.00    reference energy to select bands
   IMIX   =      4    mixing-type and parameters
     AMIX     =   0.40;   BMIX     =  1.00
     AMIX_MAG =   1.60;   BMIX_MAG =  1.00
     AMIN     =   0.10
     WC   =   100.;   INIMIX=   1;  MIXPRE=   1;  MAXMIX= -45

 Intra band minimization:
   WEIMIN = 0.0010     energy-eigenvalue tresh-hold
   EBREAK =  0.10E-06  absolut break condition
   DEPER  =   0.30     relativ break condition  

   TIME   =   0.40     timestep for ELM

  volume/ion in A,a.u.               =      20.32       137.12
  Fermi-wavevector in a.u.,A,eV,Ry     =   1.008501  1.905790 13.838131  1.017074
  Thomas-Fermi vector in A             =   2.141372
 
 Write flags
   LWAVE        =      F    write WAVECAR
   LDOWNSAMPLE  =      F    k-point downsampling of WAVECAR
   LCHARG       =      F    write CHGCAR
   LVTOT        =      F    write LOCPOT, total local potential
   LVHAR        =      F    write LOCPOT, Hartree potential only
   LELF         =      F    write electronic localiz. function (ELF)
   LORBIT       =      0    0 simple, 1 ext, 2 COOP (PROOUT), +10 PAW based schemes


 Dipole corrections
   LMONO  =      F    monopole corrections only (constant potential shift)
   LDIPOL =      F    correct potential (dipole corrections)
   IDIPOL =      0    1-x, 2-y, 3-z, 4-all directions 
   EPSILON=  1.0000000 bulk dielectric constant

 Exchange correlation treatment:
   GGA     =    --    GGA type
   LEXCH   =     2    internal setting for exchange type
   VOSKOWN=      0    Vosko Wilk Nusair interpolation
   LHFCALC =     F    Hartree Fock is set to
   LHFONE  =     F    Hartree Fock one center treatment
   AEXX    =    0.0000 exact exchange contribution

 Linear response parameters
   LEPSILON=     F    determine dielectric tensor
   LRPA    =     F    only Hartree local field effects (RPA)
   LNABLA  =     F    use nabla operator in PAW spheres
   LVEL    =     F    velocity operator in full k-point grid
   LINTERFAST=   F  fast interpolation
   KINTER  =     0    interpolate to denser k-point grid
   CSHIFT  =0.1000    complex shift for real part using Kramers Kronig
   OMEGAMAX=  -1.0    maximum frequency
   DEG_THRESHOLD= 0.2000000E-02 threshold for treating states as degnerate
   RTIME   =   -0.100 relaxation time in fs
  (WPLASMAI=    0.000 imaginary part of plasma frequency in eV, 0.658/RTIME)
   DFIELD  = 0.0000000 0.0000000 0.0000000 field for delta impulse in time
 
 Orbital magnetization related:
   ORBITALMAG=     F  switch on orbital magnetization
   LCHIMAG   =     F  perturbation theory with respect to B field
   DQ        =  0.001000  dq finite difference perturbation B field
   LLRAUG    =     F  two centre corrections for induced B field



--------------------------------------------------------------------------------------------------------


 conjugate gradient relaxation of ions
 charge density and potential will be updated during run
 non-spin polarized calculation
 RMM-DIIS sequential band-by-band and
  variant of blocked Davidson during initial phase
 perform sub-space diagonalisation
    before iterative eigenvector-optimisation
 modified Broyden-mixing scheme, WC =      100.0
 initial mixing is a Kerker type mixing with AMIX =  0.4000 and BMIX =      1.0000
 Hartree-type preconditioning will be used
 using additional bands           10
 real space projection scheme for non local part
 use partial core corrections
 calculate Harris-corrections to forces 
   (improved forces if not selfconsistent)
 use of overlap-Matrix (Vanderbilt PP)
 Fermi weights with tetrahedron method with Bloechl corrections


--------------------------------------------------------------------------------------------------------


  energy-cutoff  :      420.00
  volume of cell :      325.09
      direct lattice vectors                 reciprocal lattice vectors
     7.869267425  0.000000000  0.000000000     0.127076632  0.000000000  0.000000000
     0.000000000  5.611373976  0.000000000     0.000000000  0.178209473  0.000000000
     0.000000000  0.000000000  7.362169230     0.000000000  0.000000000  0.135829532

  length of vectors
     7.869267425  5.611373976  7.362169230     0.127076632  0.178209473  0.135829532


 
 k-points in units of 2pi/SCALE and weight: Automatic mesh                          
   0.01588458  0.02227618  0.01697869       0.125
   0.04765374  0.02227618  0.01697869       0.125
   0.01588458  0.06682855  0.01697869       0.125
   0.04765374  0.06682855  0.01697869       0.125
   0.01588458  0.02227618  0.05093607       0.125
   0.04765374  0.02227618  0.05093607       0.125
   0.01588458  0.06682855  0.05093607       0.125
   0.04765374  0.06682855  0.05093607       0.125
 
 k-points in reciprocal lattice and weights: Automatic mesh                          
   0.12500000  0.12500000  0.12500000       0.125
   0.37500000  0.12500000  0.12500000       0.125
   0.12500000  0.37500000  0.12500000       0.125
   0.37500000  0.37500000  0.12500000       0.125
   0.12500000  0.12500000  0.37500000       0.125
   0.37500000  0.12500000  0.37500000       0.125
   0.12500000  0.37500000  0.37500000       0.125
   0.37500000  0.37500000  0.37500000       0.125
 
 position of ions in fractional coordinates (direct lattice) 
   0.00000000  0.86662753  0.41048436
   0.50000000  0.13337247  0.91048436
   0.21475036  0.66418718  0.42154189
   0.28524964  0.33581282  0.92154189
   0.71475036  0.33581282  0.92154189
   0.78524964  0.66418718  0.42154189
   0.00000000  0.07323600  0.18513284
   0.50000000  0.92676400  0.68513284
   0.00000000  0.06655419  0.64449821
   0.50000000  0.93344581  0.14449821
   0.00000000  0.54053278  0.61891577
   0.50000000  0.45946722  0.11891577
   0.36704867  0.59701804  0.68020982
   0.13295133  0.40298196  0.18020982
   0.86704867  0.40298196  0.18020982
   0.63295133  0.59701804  0.68020982
 
 position of ions in cartesian coordinates  (Angst):
   0.00000000  4.86297115  3.02205535
   3.93463371  0.74840282  6.70313997
   1.68992804  3.72700266  3.10346274
   2.24470568  1.88437132  6.78454735
   5.62456175  1.88437132  6.78454735
   6.17933939  3.72700266  3.10346274
   0.00000000  0.41095459  1.36297927
   3.93463371  5.20041939  5.04406389
   0.00000000  0.37346043  4.74490493
   3.93463371  5.23791355  1.06382031
   0.00000000  3.03313160  4.55656263
   3.93463371  2.57824238  0.87547801
   2.88840412  3.35009151  5.00781979
   1.04622960  2.26128247  1.32673518
   6.82303783  2.26128247  1.32673518
   4.98086331  3.35009151  5.00781979
 


--------------------------------------------------------------------------------------------------------


 k-point  1 :   0.1250 0.1250 0.1250  plane waves:    6352
 k-point  2 :   0.3750 0.1250 0.1250  plane waves:    6376
 k-point  3 :   0.1250 0.3750 0.1250  plane waves:    6339
 k-point  4 :   0.3750 0.3750 0.1250  plane waves:    6345
 k-point  5 :   0.1250 0.1250 0.3750  plane waves:    6359
 k-point  6 :   0.3750 0.1250 0.3750  plane waves:    6359
 k-point  7 :   0.1250 0.3750 0.3750  plane waves:    6348
 k-point  8 :   0.3750 0.3750 0.3750  plane waves:    6344

 maximum and minimum number of plane-waves per node :       409      385

 maximum number of plane-waves:      6376
 maximum index in each direction: 
   IXMAX=   13   IYMAX=    9   IZMAX=   12
   IXMIN=  -13   IYMIN=   -9   IZMIN=  -12


 real space projection operators:
  total allocation   :       2797.03 KBytes
  max/ min on nodes  :        221.63        141.19


 parallel 3D FFT for wavefunctions:
    minimum data exchange during FFTs selected (reduces bandwidth)
 parallel 3D FFT for charge:
    minimum data exchange during FFTs selected (reduces bandwidth)


 total amount of memory used by VASP MPI-rank0    34047. kBytes
=======================================================================

   base      :      30000. kBytes
   nonlr-proj:       1291. kBytes
   fftplans  :        772. kBytes
   grid      :       1361. kBytes
   one-center:          3. kBytes
   wavefun   :        620. kBytes
 
     INWAV:  cpu time    0.0000: real time    0.0000
 Broyden mixing: mesh for mixing (old mesh)
   NGX = 27   NGY = 19   NGZ = 25
  (NGX  =108   NGY  = 80   NGZ  =100)
  gives a total of  12825 points

 initial charge density was supplied:
 charge density of overlapping atoms calculated
 number of electron      76.0000000 magnetization 
 keeping initial charge density in first step


--------------------------------------------------------------------------------------------------------


 Maximum index for non-local projection operator          459
 Maximum index for augmentation-charges          572 (set IRDMAX)


--------------------------------------------------------------------------------------------------------


 First call to EWALD:  gamma=   0.258
 Maximum number of real-space cells 2x 3x 3
 Maximum number of reciprocal cells 3x 2x 3

    FEWALD:  cpu time    0.0023: real time    0.0023


--------------------------------------- Iteration      1(   1)  ---------------------------------------


    POTLOK:  cpu time    0.0064: real time    0.0092
    SETDIJ:  cpu time    0.0041: real time    0.0050
     EDDAV:  cpu time    0.2089: real time    0.2174
 BZINTS: Fermi energy: 13.601593; 76.000000 electrons
         Band energy:-196.056374;  BLOECHL correction: -0.107859
       DOS:  cpu time    0.0091: real time    0.0093
    --------------------------------------------
      LOOP:  cpu time    0.2285: real time    0.2409

 eigenvalue-minimisations  :   768
 total energy-change (2. order) : 0.5206567E+03  (-0.2820244E+04)
 number of electron      76.0000000 magnetization 
 augmentation part       76.0000000 magnetization 

 Free energy of the ion-electron system (eV)
  ---------------------------------------------------
  alpha Z        PSCENC =        60.69918809
  Ewald energy   TEWEN  =     -2419.22202122
  -Hartree energ DENC   =      -828.06160648
  -exchange      EXHF   =         0.00000000
  -V(xc)+E(xc)   XCENC  =       181.10742944
  PAW double counting   =      2494.22442938    -2541.12215007
  entropy T*S    EENTRO =         0.00000000
  eigenvalues    EBANDS =      -196.05637399
  atomic energy  EATOM  =      3769.08782378
  Solvation  Ediel_sol  =         0.00000000
  ---------------------------------------------------
  free energy    TOTEN  =       520.65671894 eV

  energy without entropy =      520.65671894  energy(sigma->0) =      520.65671894


--------------------------------------------------------------------------------------------------------




--------------------------------------- Iteration      1(   2)  ---------------------------------------


     EDDAV:  cpu time    0.2056: real time    0.2056
 BZINTS: Fermi energy:  4.026724; 76.000000 electrons
         Band energy:-713.828478;  BLOECHL correction:  0.000000
       DOS:  cpu time    0.0013: real time    0.0013
    --------------------------------------------
      LOOP:  cpu time    0.2069: real time    0.2069

 eigenvalue-minimisations  :   904
 total energy-change (2. order) :-0.5177721E+03  (-0.4934048E+03)
 number of electron      76.0000000 magnetization 
 augmentation part       76.0000000 magnetization 

 Free energy of the ion-electron system (eV)
  ---------------------------------------------------
  alpha Z        PSCENC =        60.69918809
  Ewald energy   TEWEN  =     -2419.22202122
  -Hartree energ DENC   =      -828.06160648
  -exchange      EXHF   =         0.00000000
  -V(xc)+E(xc)   XCENC  =       181.10742944
  PAW double counting   =      2494.22442938    -2541.12215007
  entropy T*S    EENTRO =         0.00000000
  eigenvalues    EBANDS =      -713.82847818
  atomic energy  EATOM  =      3769.08782378
  Solvation  Ediel_sol  =         0.00000000
  ---------------------------------------------------
  free energy    TOTEN  =         2.88461475 eV

  energy without entropy =        2.88461475  energy(sigma->0) =        2.88461475


--------------------------------------------------------------------------------------------------------




--------------------------------------- Iteration      1(   3)  ---------------------------------------


     EDDAV:  cpu time    0.2382: real time    0.2383
 BZINTS: Fermi energy:  1.552922; 76.000000 electrons
         Band energy:-781.796664;  BLOECHL correction:  0.000000
       DOS:  cpu time    0.0015: real time    0.0015
    --------------------------------------------
      LOOP:  cpu time    0.2397: real time    0.2397

 eigenvalue-minimisations  :  1064
 total energy-change (2. order) :-0.6796819E+02  (-0.6704094E+02)
 number of electron      76.0000000 magnetization 
 augmentation part       76.0000000 magnetization 

 Free energy of the ion-electron system (eV)
  ---------------------------------------------------
  alpha Z        PSCENC =        60.69918809
  Ewald energy   TEWEN  =     -2419.22202122
  -Hartree energ DENC   =      -828.06160648
  -exchange      EXHF   =         0.00000000
  -V(xc)+E(xc)   XCENC  =       181.10742944
  PAW double counting   =      2494.22442938    -2541.12215007
  entropy T*S    EENTRO =         0.00000000
  eigenvalues    EBANDS =      -781.79666408
  atomic energy  EATOM  =      3769.08782378
  Solvation  Ediel_sol  =         0.00000000
  ---------------------------------------------------
  free energy    TOTEN  =       -65.08357116 eV

  energy without entropy =      -65.08357116  energy(sigma->0) =      -65.08357116


--------------------------------------------------------------------------------------------------------




--------------------------------------- Iteration      1(   4)  ---------------------------------------


     EDDAV:  cpu time    0.2975: real time    0.2975
 BZINTS: Fermi energy:  1.399360; 76.000000 electrons
         Band energy:-790.126629;  BLOECHL correction:  0.000000
       DOS:  cpu time    0.0014: real time    0.0014
    --------------------------------------------
      LOOP:  cpu time    0.2990: real time    0.2990

 eigenvalue-minimisations  :  1440
 total energy-change (2. order) :-0.8329965E+01  (-0.8272439E+01)
 number of electron      76.0000000 magnetization 
 augmentation part       76.0000000 magnetization 

 Free energy of the ion-electron system (eV)
  ---------------------------------------------------
  alpha Z        PSCENC =        60.69918809
  Ewald energy   TEWEN  =     -2419.22202122
  -Hartree energ DENC   =      -828.06160648
  -exchange      EXHF   =         0.00000000
  -V(xc)+E(xc)   XCENC  =       181.10742944
  PAW double counting   =      2494.22442938    -2541.12215007
  entropy T*S    EENTRO =         0.00000000
  eigenvalues    EBANDS =      -790.12662936
  atomic energy  EATOM  =      3769.08782378
  Solvation  Ediel_sol  =         0.00000000
  ---------------------------------------------------
  free energy    TOTEN  =       -73.41353643 eV

  energy without entropy =      -73.41353643  energy(sigma->0) =      -73.41353643


--------------------------------------------------------------------------------------------------------




--------------------------------------- Iteration      1(   5)  ---------------------------------------


     EDDAV:  cpu time    0.2443: real time    0.2443
 BZINTS: Fermi energy:  1.295038; 76.000000 electrons
         Band energy:-791.365613;  BLOECHL correction:  0.000000
       DOS:  cpu time    0.0012: real time    0.0012
    CHARGE:  cpu time    0.0212: real time    0.0213
    MIXING:  cpu time    0.0013: real time    0.0020
    --------------------------------------------
      LOOP:  cpu time    0.2680: real time    0.2688

 eigenvalue-minimisations  :  1120
 total energy-change (2. order) :-0.1238984E+01  (-0.1238649E+01)
 number of electron      75.9999963 magnetization 
 augmentation part       -1.9422734 magnetization 

 Broyden mixing:
  rms(total) = 0.23758E+01    rms(broyden)= 0.23755E+01
  rms(prec ) = 0.26397E+01
  weight for this iteration     100.00

 Free energy of the ion-electron system (eV)
  ---------------------------------------------------
  alpha Z        PSCENC =        60.69918809
  Ewald energy   TEWEN  =     -2419.22202122
  -Hartree energ DENC   =      -828.06160648
  -exchange      EXHF   =         0.00000000
  -V(xc)+E(xc)   XCENC  =       181.10742944
  PAW double counting   =      2494.22442938    -2541.12215007
  entropy T*S    EENTRO =         0.00000000
  eigenvalues    EBANDS =      -791.36561334
  atomic energy  EATOM  =      3769.08782378
  Solvation  Ediel_sol  =         0.00000000
  ---------------------------------------------------
  free energy    TOTEN  =       -74.65252041 eV

  energy without entropy =      -74.65252041  energy(sigma->0) =      -74.65252041


--------------------------------------------------------------------------------------------------------




--------------------------------------- Iteration      1(   6)  ---------------------------------------


    POTLOK:  cpu time    0.0049: real time    0.0049
    SETDIJ:  cpu time    0.0013: real time    0.0013
    EDDIAG:  cpu time    0.0552: real time    0.0560
  RMM-DIIS:  cpu time    0.1029: real time    0.1029
    ORTHCH:  cpu time    0.0077: real time    0.0077
 BZINTS: Fermi energy:  1.848954; 76.000000 electrons
         Band energy:-764.996839;  BLOECHL correction:  0.000000
       DOS:  cpu time    0.0015: real time    0.0015
    CHARGE:  cpu time    0.0200: real time    0.0200
    MIXING:  cpu time    0.0007: real time    0.0007
    --------------------------------------------
      LOOP:  cpu time    0.1941: real time    0.1949

 eigenvalue-minimisations  :   832
 total energy-change (2. order) : 0.2716806E+01  (-0.7922259E+00)
 number of electron      75.9999963 magnetization 
 augmentation part       -1.8719879 magnetization 

 Broyden mixing:
  rms(total) = 0.15196E+01    rms(broyden)= 0.15195E+01
  rms(prec ) = 0.16063E+01
  weight for this iteration     100.00

 eigenvalues of (default mixing * dielectric matrix)
  average eigenvalue GAMMA=   2.3974
  2.3974

 Free energy of the ion-electron system (eV)
  ---------------------------------------------------
  alpha Z        PSCENC =        60.69918809
  Ewald energy   TEWEN  =     -2419.22202122
  -Hartree energ DENC   =      -852.16874010
  -exchange      EXHF   =         0.00000000
  -V(xc)+E(xc)   XCENC  =       183.07710732
  PAW double counting   =      4004.93797642    -4053.35021042
  entropy T*S    EENTRO =         0.00000000
  eigenvalues    EBANDS =      -764.99683877
  atomic energy  EATOM  =      3769.08782378
  Solvation  Ediel_sol  =         0.00000000
  ---------------------------------------------------
  free energy    TOTEN  =       -71.93571489 eV

  energy without entropy =      -71.93571489  energy(sigma->0) =      -71.93571489


--------------------------------------------------------------------------------------------------------




--------------------------------------- Iteration      1(   7)  ---------------------------------------


    POTLOK:  cpu time    0.0044: real time    0.0044
    SETDIJ:  cpu time    0.0013: real time    0.0013
    EDDIAG:  cpu time    0.0548: real time    0.0548
  RMM-DIIS:  cpu time    0.1018: real time    0.1018
    ORTHCH:  cpu time    0.0074: real time    0.0074
 BZINTS: Fermi energy:  2.256773; 76.000000 electrons
         Band energy:-739.459468;  BLOECHL correction:  0.000000
       DOS:  cpu time    0.0013: real time    0.0013
    CHARGE:  cpu time    0.0200: real time    0.0200
    MIXING:  cpu time    0.0007: real time    0.0007
    --------------------------------------------
      LOOP:  cpu time    0.1917: real time    0.1917

 eigenvalue-minimisations  :   841
 total energy-change (2. order) : 0.5939802E+00  (-0.4769207E+00)
 number of electron      75.9999963 magnetization 
 augmentation part       -1.8165627 magnetization 

 Broyden mixing:
  rms(total) = 0.38031E+00    rms(broyden)= 0.38030E+00
  rms(prec ) = 0.41781E+00
  weight for this iteration     100.00

 eigenvalues of (default mixing * dielectric matrix)
  average eigenvalue GAMMA=   1.9423
  1.5255  2.3591

 Free energy of the ion-electron system (eV)
  ---------------------------------------------------
  alpha Z        PSCENC =        60.69918809
  Ewald energy   TEWEN  =     -2419.22202122
  -Hartree energ DENC   =      -877.93814215
  -exchange      EXHF   =         0.00000000
  -V(xc)+E(xc)   XCENC  =       185.19230127
  PAW double counting   =      6871.19766858    -6920.89908558
  entropy T*S    EENTRO =         0.00000000
  eigenvalues    EBANDS =      -739.45946752
  atomic energy  EATOM  =      3769.08782378
  Solvation  Ediel_sol  =         0.00000000
  ---------------------------------------------------
  free energy    TOTEN  =       -71.34173473 eV

  energy without entropy =      -71.34173473  energy(sigma->0) =      -71.34173473


--------------------------------------------------------------------------------------------------------




--------------------------------------- Iteration      1(   8)  ---------------------------------------


    POTLOK:  cpu time    0.0044: real time    0.0044
    SETDIJ:  cpu time    0.0013: real time    0.0013
    EDDIAG:  cpu time    0.0554: real time    0.0554
  RMM-DIIS:  cpu time    0.1248: real time    0.1249
    ORTHCH:  cpu time    0.0075: real time    0.0075
 BZINTS: Fermi energy:  2.245440; 76.000000 electrons
         Band energy:-740.010985;  BLOECHL correction:  0.000000
       DOS:  cpu time    0.0015: real time    0.0015
    CHARGE:  cpu time    0.0197: real time    0.0197
    MIXING:  cpu time    0.0006: real time    0.0006
    --------------------------------------------
      LOOP:  cpu time    0.2153: real time    0.2153

 eigenvalue-minimisations  :   980
 total energy-change (2. order) : 0.1291431E+00  (-0.3187071E-01)
 number of electron      75.9999963 magnetization 
 augmentation part       -1.8534044 magnetization 

 Broyden mixing:
  rms(total) = 0.65397E-01    rms(broyden)= 0.65346E-01
  rms(prec ) = 0.86293E-01
  weight for this iteration     100.00

 eigenvalues of (default mixing * dielectric matrix)
  average eigenvalue GAMMA=   1.6992
  1.0317  1.9647  2.1014

 Free energy of the ion-electron system (eV)
  ---------------------------------------------------
  alpha Z        PSCENC =        60.69918809
  Ewald energy   TEWEN  =     -2419.22202122
  -Hartree energ DENC   =      -877.44422266
  -exchange      EXHF   =         0.00000000
  -V(xc)+E(xc)   XCENC  =       185.21446725
  PAW double counting   =      7513.09555144    -7562.63239288
  entropy T*S    EENTRO =         0.00000000
  eigenvalues    EBANDS =      -740.01098540
  atomic energy  EATOM  =      3769.08782378
  Solvation  Ediel_sol  =         0.00000000
  ---------------------------------------------------
  free energy    TOTEN  =       -71.21259159 eV

  energy without entropy =      -71.21259159  energy(sigma->0) =      -71.21259159


--------------------------------------------------------------------------------------------------------




--------------------------------------- Iteration      1(   9)  ---------------------------------------


    POTLOK:  cpu time    0.0042: real time    0.0042
    SETDIJ:  cpu time    0.0013: real time    0.0013
    EDDIAG:  cpu time    0.0545: real time    0.0545
  RMM-DIIS:  cpu time    0.1349: real time    0.1349
    ORTHCH:  cpu time    0.0083: real time    0.0083
 BZINTS: Fermi energy:  2.103781; 76.000000 electrons
         Band energy:-741.034754;  BLOECHL correction:  0.000000
       DOS:  cpu time    0.0013: real time    0.0013
    CHARGE:  cpu time    0.0199: real time    0.0199
    MIXING:  cpu time    0.0009: real time    0.0009
    --------------------------------------------
      LOOP:  cpu time    0.2254: real time    0.2254

 eigenvalue-minimisations  :  1055
 total energy-change (2. order) : 0.4155834E-02  (-0.6319427E-02)
 number of electron      75.9999963 magnetization 
 augmentation part       -1.8744190 magnetization 

 Broyden mixing:
  rms(total) = 0.29159E-01    rms(broyden)= 0.29123E-01
  rms(prec ) = 0.35722E-01
  weight for this iteration     100.00

 eigenvalues of (default mixing * dielectric matrix)
  average eigenvalue GAMMA=   1.7739
  1.1961  2.1213  1.8891  1.8891

 Free energy of the ion-electron system (eV)
  ---------------------------------------------------
  alpha Z        PSCENC =        60.69918809
  Ewald energy   TEWEN  =     -2419.22202122
  -Hartree energ DENC   =      -876.44764432
  -exchange      EXHF   =         0.00000000
  -V(xc)+E(xc)   XCENC  =       185.17780857
  PAW double counting   =      7464.01729564    -7513.48613213
  entropy T*S    EENTRO =         0.00000000
  eigenvalues    EBANDS =      -741.03475418
  atomic energy  EATOM  =      3769.08782378
  Solvation  Ediel_sol  =         0.00000000
  ---------------------------------------------------
  free energy    TOTEN  =       -71.20843576 eV

  energy without entropy =      -71.20843576  energy(sigma->0) =      -71.20843576


--------------------------------------------------------------------------------------------------------




--------------------------------------- Iteration      1(  10)  ---------------------------------------


    POTLOK:  cpu time    0.0043: real time    0.0043
    SETDIJ:  cpu time    0.0014: real time    0.0014
    EDDIAG:  cpu time    0.0568: real time    0.0568
  RMM-DIIS:  cpu time    0.1457: real time    0.1458
    ORTHCH:  cpu time    0.0078: real time    0.0078
 BZINTS: Fermi energy:  2.242112; 76.000000 electrons
         Band energy:-740.225826;  BLOECHL correction:  0.000000
       DOS:  cpu time    0.0014: real time    0.0014
    CHARGE:  cpu time    0.0199: real time    0.0199
    MIXING:  cpu time    0.0007: real time    0.0007
    --------------------------------------------
      LOOP:  cpu time    0.2379: real time    0.2380

 eigenvalue-minimisations  :  1142
 total energy-change (2. order) :-0.1132114E-02  (-0.1566525E-02)
 number of electron      75.9999963 magnetization 
 augmentation part       -1.8784685 magnetization 

 Broyden mixing:
  rms(total) = 0.16627E-01    rms(broyden)= 0.16602E-01
  rms(prec ) = 0.20815E-01
  weight for this iteration     100.00

 eigenvalues of (default mixing * dielectric matrix)
  average eigenvalue GAMMA=   1.8196
  2.5685  2.5685  0.9319  1.6172  1.4119

 Free energy of the ion-electron system (eV)
  ---------------------------------------------------
  alpha Z        PSCENC =        60.69918809
  Ewald energy   TEWEN  =     -2419.22202122
  -Hartree energ DENC   =      -877.29990205
  -exchange      EXHF   =         0.00000000
  -V(xc)+E(xc)   XCENC  =       185.23362766
  PAW double counting   =      7421.22373160    -7470.70618969
  entropy T*S    EENTRO =         0.00000000
  eigenvalues    EBANDS =      -740.22582606
  atomic energy  EATOM  =      3769.08782378
  Solvation  Ediel_sol  =         0.00000000
  ---------------------------------------------------
  free energy    TOTEN  =       -71.20956787 eV

  energy without entropy =      -71.20956787  energy(sigma->0) =      -71.20956787


--------------------------------------------------------------------------------------------------------




--------------------------------------- Iteration      1(  11)  ---------------------------------------


    POTLOK:  cpu time    0.0042: real time    0.0042
    SETDIJ:  cpu time    0.0014: real time    0.0014
    EDDIAG:  cpu time    0.0551: real time    0.0551
  RMM-DIIS:  cpu time    0.1410: real time    0.1410
    ORTHCH:  cpu time    0.0074: real time    0.0074
 BZINTS: Fermi energy:  2.243186; 76.000000 electrons
         Band energy:-739.925750;  BLOECHL correction:  0.000000
       DOS:  cpu time    0.0014: real time    0.0015
    CHARGE:  cpu time    0.0197: real time    0.0197
    MIXING:  cpu time    0.0008: real time    0.0008
    --------------------------------------------
      LOOP:  cpu time    0.2310: real time    0.2310

 eigenvalue-minimisations  :  1111
 total energy-change (2. order) :-0.8866029E-03  (-0.6369347E-03)
 number of electron      75.9999963 magnetization 
 augmentation part       -1.8831796 magnetization 

 Broyden mixing:
  rms(total) = 0.48128E-02    rms(broyden)= 0.47827E-02
  rms(prec ) = 0.58093E-02
  weight for this iteration     100.00

 eigenvalues of (default mixing * dielectric matrix)
  average eigenvalue GAMMA=   1.7031
  2.4339  2.4339  1.8109  0.9899  1.2751  1.2751

 Free energy of the ion-electron system (eV)
  ---------------------------------------------------
  alpha Z        PSCENC =        60.69918809
  Ewald energy   TEWEN  =     -2419.22202122
  -Hartree energ DENC   =      -877.65721270
  -exchange      EXHF   =         0.00000000
  -V(xc)+E(xc)   XCENC  =       185.25836862
  PAW double counting   =      7384.48419823    -7433.93504907
  entropy T*S    EENTRO =         0.00000000
  eigenvalues    EBANDS =      -739.92575022
  atomic energy  EATOM  =      3769.08782378
  Solvation  Ediel_sol  =         0.00000000
  ---------------------------------------------------
  free energy    TOTEN  =       -71.21045447 eV

  energy without entropy =      -71.21045447  energy(sigma->0) =      -71.21045447


--------------------------------------------------------------------------------------------------------




--------------------------------------- Iteration      1(  12)  ---------------------------------------


    POTLOK:  cpu time    0.0043: real time    0.0048
    SETDIJ:  cpu time    0.0014: real time    0.0014
    EDDIAG:  cpu time    0.0543: real time    0.0543
  RMM-DIIS:  cpu time    0.1308: real time    0.1308
    ORTHCH:  cpu time    0.0075: real time    0.0075
 BZINTS: Fermi energy:  2.238771; 76.000000 electrons
         Band energy:-739.825531;  BLOECHL correction:  0.000000
       DOS:  cpu time    0.0015: real time    0.0015
    CHARGE:  cpu time    0.0200: real time    0.0200
    MIXING:  cpu time    0.0008: real time    0.0008
    --------------------------------------------
      LOOP:  cpu time    0.2207: real time    0.2211

 eigenvalue-minimisations  :  1056
 total energy-change (2. order) :-0.2935117E-03  (-0.3406192E-03)
 number of electron      75.9999963 magnetization 
 augmentation part       -1.8852741 magnetization 

 Broyden mixing:
  rms(total) = 0.27735E-02    rms(broyden)= 0.27450E-02
  rms(prec ) = 0.32907E-02
  weight for this iteration     100.00

 eigenvalues of (default mixing * dielectric matrix)
  average eigenvalue GAMMA=   1.6038
  2.3922  2.2136  2.2136  1.4245  1.4245  0.9906  0.5674

 Free energy of the ion-electron system (eV)
  ---------------------------------------------------
  alpha Z        PSCENC =        60.69918809
  Ewald energy   TEWEN  =     -2419.22202122
  -Hartree energ DENC   =      -877.77242716
  -exchange      EXHF   =         0.00000000
  -V(xc)+E(xc)   XCENC  =       185.26758284
  PAW double counting   =      7398.58667653    -7448.03203958
  entropy T*S    EENTRO =         0.00000000
  eigenvalues    EBANDS =      -739.82553127
  atomic energy  EATOM  =      3769.08782378
  Solvation  Ediel_sol  =         0.00000000
  ---------------------------------------------------
  free energy    TOTEN  =       -71.21074798 eV

  energy without entropy =      -71.21074798  energy(sigma->0) =      -71.21074798


--------------------------------------------------------------------------------------------------------




--------------------------------------- Iteration      1(  13)  ---------------------------------------


    POTLOK:  cpu time    0.0040: real time    0.0043
    SETDIJ:  cpu time    0.0015: real time    0.0015
    EDDIAG:  cpu time    0.0547: real time    0.0547
  RMM-DIIS:  cpu time    0.1082: real time    0.1082
    ORTHCH:  cpu time    0.0074: real time    0.0074
 BZINTS: Fermi energy:  2.234336; 76.000000 electrons
         Band energy:-739.781749;  BLOECHL correction:  0.000000
       DOS:  cpu time    0.0015: real time    0.0015
    CHARGE:  cpu time    0.0194: real time    0.0194
    MIXING:  cpu time    0.0008: real time    0.0008
    --------------------------------------------
      LOOP:  cpu time    0.1974: real time    0.1978

 eigenvalue-minimisations  :   880
 total energy-change (2. order) :-0.1387822E-03  (-0.1493290E-03)
 number of electron      75.9999963 magnetization 
 augmentation part       -1.8867724 magnetization 

 Broyden mixing:
  rms(total) = 0.14833E-02    rms(broyden)= 0.14621E-02
  rms(prec ) = 0.18654E-02
  weight for this iteration     100.00

 eigenvalues of (default mixing * dielectric matrix)
  average eigenvalue GAMMA=   1.6926
  3.1172  2.2009  1.8031  1.8031  1.3327  1.3327  1.0488  0.9023

 Free energy of the ion-electron system (eV)
  ---------------------------------------------------
  alpha Z        PSCENC =        60.69918809
  Ewald energy   TEWEN  =     -2419.22202122
  -Hartree energ DENC   =      -877.83731711
  -exchange      EXHF   =         0.00000000
  -V(xc)+E(xc)   XCENC  =       185.27203819
  PAW double counting   =      7399.62435854    -7449.05320853
  entropy T*S    EENTRO =         0.00000000
  eigenvalues    EBANDS =      -739.78174851
  atomic energy  EATOM  =      3769.08782378
  Solvation  Ediel_sol  =         0.00000000
  ---------------------------------------------------
  free energy    TOTEN  =       -71.21088677 eV

  energy without entropy =      -71.21088677  energy(sigma->0) =      -71.21088677


--------------------------------------------------------------------------------------------------------




--------------------------------------- Iteration      1(  14)  ---------------------------------------


    POTLOK:  cpu time    0.0041: real time    0.0044
    SETDIJ:  cpu time    0.0014: real time    0.0014
    EDDIAG:  cpu time    0.0549: real time    0.0549
  RMM-DIIS:  cpu time    0.1077: real time    0.1077
    ORTHCH:  cpu time    0.0075: real time    0.0075
 BZINTS: Fermi energy:  2.230200; 76.000000 electrons
         Band energy:-739.748524;  BLOECHL correction:  0.000000
       DOS:  cpu time    0.0014: real time    0.0014
    CHARGE:  cpu time    0.0199: real time    0.0199
    MIXING:  cpu time    0.0009: real time    0.0009
    --------------------------------------------
      LOOP:  cpu time    0.1978: real time    0.1981

 eigenvalue-minimisations  :   849
 total energy-change (2. order) :-0.5864478E-04  (-0.6570528E-04)
 number of electron      75.9999963 magnetization 
 augmentation part       -1.8875046 magnetization 

 Broyden mixing:
  rms(total) = 0.74223E-03    rms(broyden)= 0.72990E-03
  rms(prec ) = 0.88727E-03
  weight for this iteration     100.00

 eigenvalues of (default mixing * dielectric matrix)
  average eigenvalue GAMMA=   1.7878
  3.4018  2.3651  2.3651  2.3232  1.4613  1.4613  1.0018  0.9281  0.7822

 Free energy of the ion-electron system (eV)
  ---------------------------------------------------
  alpha Z        PSCENC =        60.69918809
  Ewald energy   TEWEN  =     -2419.22202122
  -Hartree energ DENC   =      -877.88749216
  -exchange      EXHF   =         0.00000000
  -V(xc)+E(xc)   XCENC  =       185.27570098
  PAW double counting   =      7398.37955112    -7447.79517198
  entropy T*S    EENTRO =         0.00000000
  eigenvalues    EBANDS =      -739.74852402
  atomic energy  EATOM  =      3769.08782378
  Solvation  Ediel_sol  =         0.00000000
  ---------------------------------------------------
  free energy    TOTEN  =       -71.21094541 eV

  energy without entropy =      -71.21094541  energy(sigma->0) =      -71.21094541


--------------------------------------------------------------------------------------------------------




--------------------------------------- Iteration      1(  15)  ---------------------------------------


    POTLOK:  cpu time    0.0042: real time    0.0046
    SETDIJ:  cpu time    0.0015: real time    0.0015
    EDDIAG:  cpu time    0.0546: real time    0.0546
  RMM-DIIS:  cpu time    0.0854: real time    0.0854
    ORTHCH:  cpu time    0.0076: real time    0.0076
 BZINTS: Fermi energy:  2.225759; 76.000000 electrons
         Band energy:-739.750279;  BLOECHL correction:  0.000000
       DOS:  cpu time    0.0015: real time    0.0015
    CHARGE:  cpu time    0.0203: real time    0.0203
    MIXING:  cpu time    0.0008: real time    0.0008
    --------------------------------------------
      LOOP:  cpu time    0.1759: real time    0.1764

 eigenvalue-minimisations  :   723
 total energy-change (2. order) :-0.2530165E-04  (-0.3067856E-04)
 number of electron      75.9999963 magnetization 
 augmentation part       -1.8878709 magnetization 

 Broyden mixing:
  rms(total) = 0.34903E-03    rms(broyden)= 0.34288E-03
  rms(prec ) = 0.40119E-03
  weight for this iteration     100.00

 eigenvalues of (default mixing * dielectric matrix)
  average eigenvalue GAMMA=   1.7639
  3.6323  2.5649  2.3214  2.3214  1.7382  1.3046  0.9877  0.9877  0.8904  0.8904

 Free energy of the ion-electron system (eV)
  ---------------------------------------------------
  alpha Z        PSCENC =        60.69918809
  Ewald energy   TEWEN  =     -2419.22202122
  -Hartree energ DENC   =      -877.89521969
  -exchange      EXHF   =         0.00000000
  -V(xc)+E(xc)   XCENC  =       185.27645116
  PAW double counting   =      7398.79568442    -7448.20259785
  entropy T*S    EENTRO =         0.00000000
  eigenvalues    EBANDS =      -739.75027942
  atomic energy  EATOM  =      3769.08782378
  Solvation  Ediel_sol  =         0.00000000
  ---------------------------------------------------
  free energy    TOTEN  =       -71.21097071 eV

  energy without entropy =      -71.21097071  energy(sigma->0) =      -71.21097071


--------------------------------------------------------------------------------------------------------




--------------------------------------- Iteration      1(  16)  ---------------------------------------


    POTLOK:  cpu time    0.0043: real time    0.0047
    SETDIJ:  cpu time    0.0015: real time    0.0015
    EDDIAG:  cpu time    0.0538: real time    0.0538
  RMM-DIIS:  cpu time    0.0829: real time    0.0829
    ORTHCH:  cpu time    0.0075: real time    0.0075
 BZINTS: Fermi energy:  2.221448; 76.000000 electrons
         Band energy:-739.743857;  BLOECHL correction:  0.000000
       DOS:  cpu time    0.0014: real time    0.0014
    --------------------------------------------
      LOOP:  cpu time    0.1513: real time    0.1517

 eigenvalue-minimisations  :   657
 total energy-change (2. order) :-0.1096149E-04  (-0.1462493E-04)
 number of electron      75.9999963 magnetization 
 augmentation part       -1.8878709 magnetization 

 Free energy of the ion-electron system (eV)
  ---------------------------------------------------
  alpha Z        PSCENC =        60.69918809
  Ewald energy   TEWEN  =     -2419.22202122
  -Hartree energ DENC   =      -877.90597571
  -exchange      EXHF   =         0.00000000
  -V(xc)+E(xc)   XCENC  =       185.27723445
  PAW double counting   =      7398.91844575    -7448.32181950
  entropy T*S    EENTRO =         0.00000000
  eigenvalues    EBANDS =      -739.74385733
  atomic energy  EATOM  =      3769.08782378
  Solvation  Ediel_sol  =         0.00000000
  ---------------------------------------------------
  free energy    TOTEN  =       -71.21098167 eV

  energy without entropy =      -71.21098167  energy(sigma->0) =      -71.21098167


--------------------------------------------------------------------------------------------------------




 average (electrostatic) potential at core
  the test charge radii are     0.9587  0.9698  0.7079
  (the norm of the test charge is              1.0000)
       1 -89.1383       2 -89.1383       3 -89.4441       4 -89.4441       5 -89.4441
       6 -89.4441       7 -88.9446       8 -88.9446       9 -88.3430      10 -88.3430
      11 -65.5315      12 -65.5315      13 -65.7231      14 -65.7231      15 -65.7231
      16 -65.7231
 
 
 
 E-fermi :   2.2214     XC(G=0):  -8.4637     alpha+bet : -9.2901


 k-point     1 :       0.1250    0.1250    0.1250
  band No.  band energies     occupation 
      1     -42.9695      2.00000
      2     -42.9693      2.00000
      3     -42.8366      2.00000
      4     -42.8364      2.00000
      5     -42.6936      2.00000
      6     -42.6935      2.00000
      7     -13.4535      2.00000
      8     -13.3476      2.00000
      9     -10.7131      2.00000
     10     -10.6382      2.00000
     11     -10.4983      2.00000
     12     -10.2799      2.00000
     13      -9.5847      2.00000
     14      -9.4334      2.00000
     15      -6.4945      2.00000
     16      -5.7031      2.00000
     17      -3.7146      2.00000
     18      -3.3468      2.00000
     19      -3.0803      2.00000
     20      -3.0341      2.00000
     21      -2.6670      2.00000
     22      -2.4269      2.00000
     23      -1.3859      2.00000
     24      -1.0757      2.00000
     25      -0.8406      2.00000
     26      -0.7922      2.00000
     27      -0.5321      2.00000
     28      -0.1789      2.00000
     29       0.0735      2.00000
     30       0.2882      2.00000
     31       0.4115      2.00000
     32       0.6702      2.00000
     33       0.9683      2.00000
     34       1.2243      2.00000
     35       1.4967      2.00000
     36       1.5568      2.00000
     37       1.8020      2.00000
     38       1.9396      2.00000
     39       3.3441      0.00000
     40       4.1110      0.00000
     41       4.8884      0.00000
     42       5.0868      0.00000
     43       5.6140      0.00000
     44       5.7355      0.00000
     45       6.1017      0.00000
     46       6.5038      0.00000
     47       6.5599      0.00000
     48       7.2101      0.00000

 k-point     2 :       0.3750    0.1250    0.1250
  band No.  band energies     occupation 
      1     -42.9694      2.00000
      2     -42.9694      2.00000
      3     -42.8366      2.00000
      4     -42.8366      2.00000
      5     -42.6935      2.00000
      6     -42.6935      2.00000
      7     -13.4205      2.00000
      8     -13.3765      2.00000
      9     -10.7469      2.00000
     10     -10.7079      2.00000
     11     -10.3927      2.00000
     12     -10.3120      2.00000
     13      -9.5340      2.00000
     14      -9.4712      2.00000
     15      -6.2433      2.00000
     16      -5.9120      2.00000
     17      -3.5711      2.00000
     18      -3.3722      2.00000
     19      -3.1232      2.00000
     20      -3.0580      2.00000
     21      -2.7411      2.00000
     22      -2.6265      2.00000
     23      -1.2258      2.00000
     24      -1.0901      2.00000
     25      -1.0045      2.00000
     26      -0.9660      2.00000
     27      -0.2445      2.00000
     28      -0.0450      2.00000
     29       0.0749      2.00000
     30       0.3046      2.00000
     31       0.4905      2.00000
     32       0.6825      2.00000
     33       0.8530      2.00000
     34       1.0082      2.00000
     35       1.5174      2.00000
     36       1.5605      2.00000
     37       1.7573      2.00000
     38       1.8110      2.00000
     39       3.9952      0.00000
     40       4.4164      0.00000
     41       4.9438      0.00000
     42       5.2068      0.00000
     43       5.4637      0.00000
     44       5.7709      0.00000
     45       6.1428      0.00000
     46       6.3664      0.00000
     47       6.6276      0.00000
     48       7.0839      0.00000

 k-point     3 :       0.1250    0.3750    0.1250
  band No.  band energies     occupation 
      1     -42.9695      2.00000
      2     -42.9693      2.00000
      3     -42.8366      2.00000
      4     -42.8363      2.00000
      5     -42.6936      2.00000
      6     -42.6935      2.00000
      7     -13.4308      2.00000
      8     -13.3347      2.00000
      9     -10.6921      2.00000
     10     -10.6607      2.00000
     11     -10.5240      2.00000
     12     -10.3113      2.00000
     13      -9.6220      2.00000
     14      -9.4735      2.00000
     15      -6.4122      2.00000
     16      -5.6873      2.00000
     17      -3.7115      2.00000
     18      -3.3572      2.00000
     19      -3.1788      2.00000
     20      -3.0934      2.00000
     21      -2.6969      2.00000
     22      -2.4746      2.00000
     23      -1.1554      2.00000
     24      -0.9051      2.00000
     25      -0.7866      2.00000
     26      -0.5892      2.00000
     27      -0.5310      2.00000
     28      -0.3461      2.00000
     29      -0.1449      2.00000
     30       0.2372      2.00000
     31       0.3329      2.00000
     32       0.5481      2.00000
     33       1.1038      2.00000
     34       1.3722      2.00000
     35       1.6136      2.00000
     36       1.6402      2.00000
     37       1.9562      2.00000
     38       2.1151      2.00000
     39       3.1121      0.00000
     40       4.3243      0.00000
     41       4.8544      0.00000
     42       5.1290      0.00000
     43       5.7065      0.00000
     44       5.9360      0.00000
     45       6.0068      0.00000
     46       6.4145      0.00000
     47       6.6270      0.00000
     48       7.0454      0.00000

 k-point     4 :       0.3750    0.3750    0.1250
  band No.  band energies     occupation 
      1     -42.9694      2.00000
      2     -42.9693      2.00000
      3     -42.8366      2.00000
      4     -42.8365      2.00000
      5     -42.6935      2.00000
      6     -42.6935      2.00000
      7     -13.4004      2.00000
      8     -13.3604      2.00000
      9     -10.7448      2.00000
     10     -10.7243      2.00000
     11     -10.4106      2.00000
     12     -10.3367      2.00000
     13      -9.5719      2.00000
     14      -9.5104      2.00000
     15      -6.1783      2.00000
     16      -5.8743      2.00000
     17      -3.5870      2.00000
     18      -3.4163      2.00000
     19      -3.1515      2.00000
     20      -3.0701      2.00000
     21      -2.8251      2.00000
     22      -2.7062      2.00000
     23      -1.0282      2.00000
     24      -0.9483      2.00000
     25      -0.7500      2.00000
     26      -0.6389      2.00000
     27      -0.5031      2.00000
     28      -0.2803      2.00000
     29      -0.0460      2.00000
     30       0.2226      2.00000
     31       0.3661      2.00000
     32       0.5088      2.00000
     33       1.0727      2.00000
     34       1.1937      2.00000
     35       1.5762      2.00000
     36       1.6167      2.00000
     37       1.9250      2.00000
     38       1.9799      2.00000
     39       3.7971      0.00000
     40       4.4509      0.00000
     41       5.0602      0.00000
     42       5.2300      0.00000
     43       5.5692      0.00000
     44       5.7503      0.00000
     45       5.9778      0.00000
     46       6.2567      0.00000
     47       6.6673      0.00000
     48       6.8367      0.00000

 k-point     5 :       0.1250    0.1250    0.3750
  band No.  band energies     occupation 
      1     -42.9695      2.00000
      2     -42.9694      2.00000
      3     -42.8365      2.00000
      4     -42.8365      2.00000
      5     -42.6936      2.00000
      6     -42.6935      2.00000
      7     -13.4214      2.00000
      8     -13.3774      2.00000
      9     -10.6934      2.00000
     10     -10.6616      2.00000
     11     -10.4394      2.00000
     12     -10.3484      2.00000
     13      -9.5548      2.00000
     14      -9.4954      2.00000
     15      -6.2335      2.00000
     16      -5.9048      2.00000
     17      -3.6286      2.00000
     18      -3.4748      2.00000
     19      -3.0628      2.00000
     20      -3.0454      2.00000
     21      -2.5859      2.00000
     22      -2.4792      2.00000
     23      -1.2106      2.00000
     24      -0.9606      2.00000
     25      -0.9204      2.00000
     26      -0.7291      2.00000
     27      -0.4946      2.00000
     28      -0.1741      2.00000
     29      -0.0446      2.00000
     30       0.1326      2.00000
     31       0.3997      2.00000
     32       0.5280      2.00000
     33       1.0499      2.00000
     34       1.1303      2.00000
     35       1.2665      2.00000
     36       1.2958      2.00000
     37       1.9460      2.00000
     38       2.0277      2.00000
     39       3.6269      0.00000
     40       3.9732      0.00000
     41       4.9000      0.00000
     42       5.0538      0.00000
     43       5.9178      0.00000
     44       5.9958      0.00000
     45       6.2998      0.00000
     46       6.3484      0.00000
     47       6.7454      0.00000
     48       7.1479      0.00000

 k-point     6 :       0.3750    0.1250    0.3750
  band No.  band energies     occupation 
      1     -42.9694      2.00000
      2     -42.9694      2.00000
      3     -42.8366      2.00000
      4     -42.8366      2.00000
      5     -42.6935      2.00000
      6     -42.6935      2.00000
      7     -13.4051      2.00000
      8     -13.3868      2.00000
      9     -10.7476      2.00000
     10     -10.7303      2.00000
     11     -10.3671      2.00000
     12     -10.3338      2.00000
     13      -9.5206      2.00000
     14      -9.4951      2.00000
     15      -6.1108      2.00000
     16      -5.9718      2.00000
     17      -3.5644      2.00000
     18      -3.4865      2.00000
     19      -3.0746      2.00000
     20      -3.0477      2.00000
     21      -2.6963      2.00000
     22      -2.6407      2.00000
     23      -1.0795      2.00000
     24      -0.9851      2.00000
     25      -0.9133      2.00000
     26      -0.7677      2.00000
     27      -0.5621      2.00000
     28      -0.3606      2.00000
     29       0.1096      2.00000
     30       0.1973      2.00000
     31       0.5864      2.00000
     32       0.6667      2.00000
     33       0.8943      2.00000
     34       0.9583      2.00000
     35       1.3183      2.00000
     36       1.3391      2.00000
     37       1.8259      2.00000
     38       1.8734      2.00000
     39       4.1254      0.00000
     40       4.2981      0.00000
     41       5.0224      0.00000
     42       5.1228      0.00000
     43       5.6732      0.00000
     44       6.0219      0.00000
     45       6.2778      0.00000
     46       6.4588      0.00000
     47       6.8663      0.00000
     48       7.0522      0.00000

 k-point     7 :       0.1250    0.3750    0.3750
  band No.  band energies     occupation 
      1     -42.9695      2.00000
      2     -42.9694      2.00000
      3     -42.8365      2.00000
      4     -42.8364      2.00000
      5     -42.6936      2.00000
      6     -42.6935      2.00000
      7     -13.4014      2.00000
      8     -13.3615      2.00000
      9     -10.6791      2.00000
     10     -10.6651      2.00000
     11     -10.4713      2.00000
     12     -10.3808      2.00000
     13      -9.5972      2.00000
     14      -9.5386      2.00000
     15      -6.1642      2.00000
     16      -5.8615      2.00000
     17      -3.6128      2.00000
     18      -3.4616      2.00000
     19      -3.1504      2.00000
     20      -3.1243      2.00000
     21      -2.5875      2.00000
     22      -2.4930      2.00000
     23      -1.0998      2.00000
     24      -1.0150      2.00000
     25      -0.9262      2.00000
     26      -0.7714      2.00000
     27      -0.3107      2.00000
     28      -0.1810      2.00000
     29      -0.1233      2.00000
     30       0.1568      2.00000
     31       0.4329      2.00000
     32       0.5486      2.00000
     33       1.1483      2.00000
     34       1.2781      2.00000
     35       1.3554      2.00000
     36       1.3965      2.00000
     37       1.9357      2.00000
     38       2.0382      2.00000
     39       3.4720      0.00000
     40       3.9808      0.00000
     41       4.9217      0.00000
     42       5.1585      0.00000
     43       5.8928      0.00000
     44       6.0482      0.00000
     45       6.1799      0.00000
     46       6.5016      0.00000
     47       6.9356      0.00000
     48       7.1124      0.00000

 k-point     8 :       0.3750    0.3750    0.3750
  band No.  band energies     occupation 
      1     -42.9694      2.00000
      2     -42.9694      2.00000
      3     -42.8366      2.00000
      4     -42.8365      2.00000
      5     -42.6935      2.00000
      6     -42.6935      2.00000
      7     -13.3863      2.00000
      8     -13.3697      2.00000
      9     -10.7375      2.00000
     10     -10.7279      2.00000
     11     -10.4005      2.00000
     12     -10.3693      2.00000
     13      -9.5628      2.00000
     14      -9.5380      2.00000
     15      -6.0421      2.00000
     16      -5.9134      2.00000
     17      -3.5972      2.00000
     18      -3.5340      2.00000
     19      -3.0746      2.00000
     20      -3.0533      2.00000
     21      -2.7256      2.00000
     22      -2.6766      2.00000
     23      -1.0710      2.00000
     24      -1.0412      2.00000
     25      -0.8600      2.00000
     26      -0.7763      2.00000
     27      -0.4235      2.00000
     28      -0.2413      2.00000
     29      -0.0317      2.00000
     30       0.1474      2.00000
     31       0.5827      2.00000
     32       0.6594      2.00000
     33       1.0878      2.00000
     34       1.1555      2.00000
     35       1.3209      2.00000
     36       1.3444      2.00000
     37       1.9440      2.00000
     38       1.9739      2.00000
     39       4.0577      0.00000
     40       4.3979      0.00000
     41       5.0695      0.00000
     42       5.1791      0.00000
     43       5.5592      0.00000
     44       5.6821      0.00000
     45       6.0198      0.00000
     46       6.1755      0.00000
     47       6.9916      0.00000
     48       7.1197      0.00000


--------------------------------------------------------------------------------------------------------


 soft charge-density along one line, spin component           1
         0         1         2         3         4         5         6         7         8         9
 total charge-density along one line
 
 pseudopotential strength for first ion, spin component:           1
 30.231  37.719  -0.028  -0.015   0.000  -0.044  -0.023   0.000
 37.719  47.067  -0.035  -0.019   0.000  -0.054  -0.029   0.000
 -0.028  -0.035   6.615  -0.002  -0.000  10.243  -0.003  -0.000
 -0.015  -0.019  -0.002   6.614   0.000  -0.003  10.242   0.000
  0.000   0.000  -0.000   0.000   6.615  -0.000   0.000  10.243
 -0.044  -0.054  10.243  -0.003  -0.000  15.879  -0.004  -0.000
 -0.023  -0.029  -0.003  10.242   0.000  -0.004  15.879   0.000
  0.000   0.000  -0.000   0.000  10.243  -0.000   0.000  15.879
 total augmentation occupancy for first ion, spin component:           1
 11.112  -6.385  -0.551  -0.006   0.000   0.173  -0.036   0.000
 -6.385   4.124   0.464   0.039   0.000  -0.135   0.015   0.000
 -0.551   0.464   4.323  -0.238   0.000  -1.439   0.115   0.000
 -0.006   0.039  -0.238   4.460   0.000   0.115  -1.483   0.000
  0.000   0.000   0.000   0.000   4.376   0.000   0.000  -1.484
  0.173  -0.135  -1.439   0.115   0.000   0.517  -0.048   0.000
 -0.036   0.015   0.115  -1.483   0.000  -0.048   0.538   0.000
  0.000   0.000   0.000   0.000  -1.484   0.000   0.000   0.537


------------------------ aborting loop because EDIFF is reached ----------------------------------------


    CHARGE:  cpu time    0.0200: real time    0.0201
    FORLOC:  cpu time    0.0008: real time    0.0008
    FORNL :  cpu time    0.0399: real time    0.0401
    STRESS:  cpu time    0.1156: real time    0.1164
    FORCOR:  cpu time    0.0035: real time    0.0035
    FORHAR:  cpu time    0.0028: real time    0.0028
    MIXING:  cpu time    0.0006: real time    0.0006
    OFIELD:  cpu time    0.0000: real time    0.0000

  FORCE on cell =-STRESS in cart. coord.  units (eV):
  Direction    XX          YY          ZZ          XY          YZ          ZX
  --------------------------------------------------------------------------------------
  Alpha Z    60.69919    60.69919    60.69919
  Ewald    -787.56980  -740.37863  -891.28036    -0.00000    -0.00000     0.00000
  Hartree   311.22637   341.63309   225.04789     0.00000     0.00000     0.00000
  E(xc)    -277.00741  -277.03212  -276.99386     0.00000     0.00000     0.00000
  Local    -862.56610  -941.66055  -668.84711     0.00000     0.00000    -0.00000
  n-local   595.35751   597.28605   595.55833    -0.01292    -0.04341    -0.15700
  augment   -47.79926   -46.72160   -46.74415     0.00000    -0.00000     0.00000
  Kinetic  1014.66972  1004.91757  1005.01915    -0.12181     0.14090    -0.20776
  Fock        0.00000     0.00000     0.00000     0.00000     0.00000     0.00000
  -------------------------------------------------------------------------------------
  Total       7.01021    -1.25700     2.45907     0.00000     0.00000     0.00000
  in kB      34.54873    -6.19493    12.11916     0.00000     0.00000     0.00000
  external pressure =       13.49 kB  Pullay stress =        0.00 kB


 VOLUME and BASIS-vectors are now :
 -----------------------------------------------------------------------------
  energy-cutoff  :      420.00
  volume of cell :      325.09
      direct lattice vectors                 reciprocal lattice vectors
     7.869267425  0.000000000  0.000000000     0.127076632  0.000000000  0.000000000
     0.000000000  5.611373976  0.000000000     0.000000000  0.178209473  0.000000000
[...]
     17      -2.4482      2.00000
     18      -2.2881      2.00000
     19      -2.2548      2.00000
     20      -2.1475      2.00000
     21      -1.8033      2.00000
     22      -1.7548      2.00000
     23      -0.3567      2.00000
     24      -0.1759      2.00000
     25       0.1953      2.00000
     26       0.3544      2.00000
     27       0.5297      2.00000
     28       0.7628      2.00000
     29       0.8418      2.00000
     30       1.0539      2.00000
     31       1.5692      2.00000
     32       1.6687      2.00000
     33       1.9819      2.00000
     34       2.0372      2.00000
     35       2.0593      2.00000
     36       2.1420      2.00000
     37       2.2420      2.00000
     38       2.5279      2.00000
     39       5.2765      0.00000
     40       5.5644      0.00000
     41       6.1923      0.00000
     42       6.4042      0.00000
     43       6.6225      0.00000
     44       6.8698      0.00000
     45       7.3290      0.00000
     46       7.4027      0.00000
     47       8.2025      0.00000
     48       8.3731      0.00000

 k-point     4 :       0.3750    0.3750    0.1250
  band No.  band energies     occupation 
      1     -41.3221      2.00000
      2     -41.3221      2.00000
      3     -40.7645      2.00000
      4     -40.7644      2.00000
      5     -40.7618      2.00000
      6     -40.7618      2.00000
      7     -12.4244      2.00000
      8     -12.3949      2.00000
      9      -9.4821      2.00000
     10      -9.4515      2.00000
     11      -9.4269      2.00000
     12      -9.3857      2.00000
     13      -9.1892      2.00000
     14      -9.1657      2.00000
     15      -5.0708      2.00000
     16      -4.9489      2.00000
     17      -2.3972      2.00000
     18      -2.3148      2.00000
     19      -2.2005      2.00000
     20      -2.1394      2.00000
     21      -1.8247      2.00000
     22      -1.7464      2.00000
     23      -0.2746      2.00000
     24      -0.1439      2.00000
     25       0.0749      2.00000
     26       0.3458      2.00000
     27       0.6220      2.00000
     28       0.7012      2.00000
     29       0.8195      2.00000
     30       1.1534      2.00000
     31       1.3557      2.00000
     32       1.4900      2.00000
     33       1.8167      2.00000
     34       1.8625      2.00000
     35       1.9658      2.00000
     36       2.0645      2.00000
     37       2.2884      2.00000
     38       2.3788      2.00000
     39       5.4970      0.00000
     40       5.6700      0.00000
     41       6.4065      0.00000
     42       6.5790      0.00000
     43       6.8793      0.00000
     44       7.1913      0.00000
     45       7.2874      0.00000
     46       7.4350      0.00000
     47       8.3891      0.00000
     48       8.4846      0.00000

 k-point     5 :       0.1250    0.1250    0.3750
  band No.  band energies     occupation 
      1     -41.3221      2.00000
      2     -41.3221      2.00000
      3     -40.7646      2.00000
      4     -40.7645      2.00000
      5     -40.7617      2.00000
      6     -40.7617      2.00000
      7     -12.4585      2.00000
      8     -12.3947      2.00000
      9      -9.5785      2.00000
     10      -9.4965      2.00000
     11      -9.3715      2.00000
     12      -9.2571      2.00000
     13      -9.1723      2.00000
     14      -9.1440      2.00000
     15      -5.0957      2.00000
     16      -4.8543      2.00000
     17      -2.4753      2.00000
     18      -2.2951      2.00000
     19      -2.0647      2.00000
     20      -1.9605      2.00000
     21      -1.8036      2.00000
     22      -1.7201      2.00000
     23      -0.2766      2.00000
     24      -0.1172      2.00000
     25       0.0399      2.00000
     26       0.1096      2.00000
     27       0.2660      2.00000
     28       0.6848      2.00000
     29       1.0771      2.00000
     30       1.1939      2.00000
     31       1.3299      2.00000
     32       1.3844      2.00000
     33       1.6365      2.00000
     34       1.7738      2.00000
     35       1.8355      2.00000
     36       1.9467      2.00000
     37       2.1792      2.00000
     38       2.2800      2.00000
     39       5.4505      0.00000
     40       5.8909      0.00000
     41       6.3909      0.00000
     42       6.5213      0.00000
     43       6.5939      0.00000
     44       7.1608      0.00000
     45       7.2622      0.00000
     46       7.3356      0.00000
     47       8.2011      0.00000
     48       8.4249      0.00000

 k-point     6 :       0.3750    0.1250    0.3750
  band No.  band energies     occupation 
      1     -41.3221      2.00000
      2     -41.3221      2.00000
      3     -40.7645      2.00000
      4     -40.7644      2.00000
      5     -40.7619      2.00000
      6     -40.7618      2.00000
      7     -12.4347      2.00000
      8     -12.4081      2.00000
      9      -9.6187      2.00000
     10      -9.5814      2.00000
     11      -9.3114      2.00000
     12      -9.2722      2.00000
     13      -9.1426      2.00000
     14      -9.1324      2.00000
     15      -4.9667      2.00000
     16      -4.8660      2.00000
     17      -2.3919      2.00000
     18      -2.3600      2.00000
     19      -2.1692      2.00000
     20      -2.0331      2.00000
     21      -1.6944      2.00000
     22      -1.6867      2.00000
     23      -0.0994      2.00000
     24       0.0096      2.00000
     25       0.0643      2.00000
     26       0.1684      2.00000
     27       0.2978      2.00000
     28       0.6901      2.00000
     29       1.0618      2.00000
     30       1.1561      2.00000
     31       1.2691      2.00000
     32       1.3240      2.00000
     33       1.4853      2.00000
     34       1.5578      2.00000
     35       1.7326      2.00000
     36       1.7928      2.00000
     37       1.9268      2.00000
     38       2.0019      2.00000
     39       5.8490      0.00000
     40       6.1315      0.00000
     41       6.5419      0.00000
     42       6.7312      0.00000
     43       6.9148      0.00000
     44       7.1793      0.00000
     45       7.5163      0.00000
     46       7.6943      0.00000
     47       8.2246      0.00000
     48       8.3793      0.00000

 k-point     7 :       0.1250    0.3750    0.3750
  band No.  band energies     occupation 
      1     -41.3221      2.00000
      2     -41.3221      2.00000
      3     -40.7646      2.00000
      4     -40.7645      2.00000
      5     -40.7617      2.00000
      6     -40.7617      2.00000
      7     -12.4184      2.00000
      8     -12.3885      2.00000
      9      -9.5575      2.00000
     10      -9.5240      2.00000
     11      -9.3794      2.00000
     12      -9.2805      2.00000
     13      -9.2282      2.00000
     14      -9.1864      2.00000
     15      -4.9893      2.00000
     16      -4.8767      2.00000
     17      -2.4798      2.00000
     18      -2.3696      2.00000
     19      -2.1782      2.00000
     20      -2.1053      2.00000
     21      -1.8759      2.00000
     22      -1.6981      2.00000
     23      -0.1948      2.00000
     24      -0.0107      2.00000
     25       0.1796      2.00000
     26       0.3938      2.00000
     27       0.5915      2.00000
     28       0.7147      2.00000
     29       0.7584      2.00000
     30       1.0733      2.00000
     31       1.2272      2.00000
     32       1.3194      2.00000
     33       1.7378      2.00000
     34       1.8164      2.00000
     35       1.9995      2.00000
     36       2.0125      2.00000
     37       2.2035      2.00000
     38       2.2940      2.00000
     39       5.6193      0.00000
     40       5.8169      0.00000
     41       6.4258      0.00000
     42       6.5990      0.00000
     43       7.0207      0.00000
     44       7.0868      0.00000
     45       7.3207      0.00000
     46       7.3736      0.00000
     47       8.4783      0.00000
     48       8.8448      0.00000

 k-point     8 :       0.3750    0.3750    0.3750
  band No.  band energies     occupation 
      1     -41.3221      2.00000
      2     -41.3221      2.00000
      3     -40.7644      2.00000
      4     -40.7644      2.00000
      5     -40.7618      2.00000
      6     -40.7618      2.00000
      7     -12.4050      2.00000
      8     -12.3925      2.00000
      9      -9.5441      2.00000
     10      -9.5283      2.00000
     11      -9.3774      2.00000
     12      -9.3387      2.00000
     13      -9.2209      2.00000
     14      -9.2035      2.00000
     15      -4.8705      2.00000
     16      -4.8220      2.00000
     17      -2.3958      2.00000
     18      -2.3566      2.00000
     19      -2.2397      2.00000
     20      -2.1886      2.00000
     21      -1.7451      2.00000
     22      -1.7197      2.00000
     23      -0.2466      2.00000
     24      -0.1767      2.00000
     25       0.2896      2.00000
     26       0.5126      2.00000
     27       0.5584      2.00000
     28       0.7118      2.00000
     29       0.8005      2.00000
     30       0.9320      2.00000
     31       1.2613      2.00000
     32       1.3448      2.00000
     33       1.6545      2.00000
     34       1.7298      2.00000
     35       1.8448      2.00000
     36       1.9049      2.00000
     37       2.0216      2.00000
     38       2.0735      2.00000
     39       5.9999      0.00000
     40       6.1537      0.00000
     41       6.6971      0.00000
     42       6.8532      0.00000
     43       6.9877      0.00000
     44       7.1150      0.00000
     45       7.2782      0.00000
     46       7.3437      0.00000
     47       8.6231      0.00000
     48       8.7077      0.00000


--------------------------------------------------------------------------------------------------------


 soft charge-density along one line, spin component           1
         0         1         2         3         4         5         6         7         8         9
 total charge-density along one line
 
 pseudopotential strength for first ion, spin component:           1
 30.018  37.453  -0.002   0.005   0.000  -0.002   0.009   0.000
 37.453  46.734  -0.002   0.007   0.000  -0.003   0.011   0.000
 -0.002  -0.002   6.578  -0.001  -0.000  10.185  -0.001  -0.000
  0.005   0.007  -0.001   6.580   0.000  -0.001  10.188   0.000
  0.000   0.000  -0.000   0.000   6.577  -0.000   0.000  10.185
 -0.002  -0.003  10.185  -0.001  -0.000  15.791  -0.002  -0.000
  0.009   0.011  -0.001  10.188   0.000  -0.002  15.795   0.000
  0.000   0.000  -0.000   0.000  10.185  -0.000   0.000  15.790
 total augmentation occupancy for first ion, spin component:           1
 10.944  -6.288  -0.087   0.229   0.000   0.040  -0.093   0.000
 -6.288   4.083   0.076  -0.209   0.000  -0.033   0.079   0.000
 -0.087   0.076   4.160  -0.269   0.000  -1.363   0.120   0.000
  0.229  -0.209  -0.269   4.676   0.000   0.120  -1.605   0.000
  0.000   0.000   0.000   0.000   4.204   0.000   0.000  -1.386
  0.040  -0.033  -1.363   0.120   0.000   0.485  -0.054   0.000
 -0.093   0.079   0.120  -1.605   0.000  -0.054   0.593   0.000
  0.000   0.000   0.000   0.000  -1.386   0.000   0.000   0.496


------------------------ aborting loop because EDIFF is reached ----------------------------------------


    CHARGE:  cpu time    0.0183: real time    0.0184
    FORLOC:  cpu time    0.0009: real time    0.0009
    FORNL :  cpu time    0.0404: real time    0.0404
    STRESS:  cpu time    0.1189: real time    0.1189
    FORCOR:  cpu time    0.0040: real time    0.0040
    FORHAR:  cpu time    0.0027: real time    0.0027
    MIXING:  cpu time    0.0003: real time    0.0003
    OFIELD:  cpu time    0.0000: real time    0.0000

  FORCE on cell =-STRESS in cart. coord.  units (eV):
  Direction    XX          YY          ZZ          XY          YZ          ZX
  --------------------------------------------------------------------------------------
  Alpha Z    68.93522    68.93522    68.93522
  Ewald    -936.22139  -892.45211  -900.55904    -0.00000    -0.00000     0.00000
  Hartree   213.00093   237.34946   208.43850     0.00000    -0.00000     0.00000
  E(xc)    -277.01172  -277.02093  -277.04423     0.00000     0.00000    -0.00000
  Local    -629.15404  -695.00967  -648.50885     0.00000     0.00000    -0.00000
  n-local   605.35476   605.84242   607.19052    -0.19123    -0.11445    -0.04797
  augment   -44.79258   -44.66858   -43.94297     0.00000     0.00000     0.00000
  Kinetic   999.88839   997.11096   985.61641     0.06160    -0.01511    -0.04896
  Fock        0.00000     0.00000     0.00000     0.00000     0.00000     0.00000
  -------------------------------------------------------------------------------------
  Total      -0.00043     0.08676     0.12556     0.00000     0.00000     0.00000
  in kB      -0.00243     0.48562     0.70278     0.00000     0.00000     0.00000
  external pressure =        0.40 kB  Pullay stress =        0.00 kB


 VOLUME and BASIS-vectors are now :
 -----------------------------------------------------------------------------
  energy-cutoff  :      420.00
  volume of cell :      286.25
      direct lattice vectors                 reciprocal lattice vectors
     7.273087329  0.000000000  0.000000000     0.137493193  0.000000000  0.000000000
     0.000000000  5.622461576  0.000000000     0.000000000  0.177858041  0.000000000
     0.000000000  0.000000000  7.000124344     0.000000000  0.000000000  0.142854605

  length of vectors
     7.273087329  5.622461576  7.000124344     0.137493193  0.177858041  0.142854605


 FORCES acting on ions
    electron-ion (+dipol)            ewald-force                    non-local-force                 convergence-correction
 -----------------------------------------------------------------------------------------------
   -.887E-10 -.106E+02 0.227E+02   -.130E-08 0.109E+02 -.239E+02   0.000E+00 -.315E+00 0.123E+01   -.424E-12 0.423E-02 -.309E-02
   0.170E-08 0.106E+02 0.227E+02   0.400E-09 -.109E+02 -.239E+02   0.000E+00 0.315E+00 0.123E+01   -.297E-12 -.423E-02 -.309E-02
   -.776E+02 0.410E+02 0.195E+00   0.786E+02 -.423E+02 0.113E+01   -.932E+00 0.127E+01 -.132E+01   0.586E-02 0.440E-02 -.258E-02
   0.776E+02 -.410E+02 0.195E+00   -.786E+02 0.423E+02 0.113E+01   0.932E+00 -.127E+01 -.132E+01   -.586E-02 -.440E-02 -.258E-02
   -.776E+02 -.410E+02 0.195E+00   0.786E+02 0.423E+02 0.113E+01   -.932E+00 -.127E+01 -.132E+01   0.586E-02 -.440E-02 -.258E-02
   0.776E+02 0.410E+02 0.195E+00   -.786E+02 -.423E+02 0.113E+01   0.932E+00 0.127E+01 -.132E+01   -.586E-02 0.440E-02 -.258E-02
   0.112E-10 -.169E+02 0.912E+02   -.948E-09 0.174E+02 -.927E+02   0.000E+00 -.448E+00 0.149E+01   -.352E-12 0.688E-03 -.583E-02
   0.447E-08 0.169E+02 0.912E+02   0.658E-09 -.174E+02 -.927E+02   0.000E+00 0.448E+00 0.149E+01   -.456E-12 -.688E-03 -.583E-02
   0.707E-10 -.614E+02 -.652E+02   -.113E-08 0.617E+02 0.674E+02   0.000E+00 -.339E+00 -.212E+01   0.537E-12 0.781E-03 -.487E-02
   0.442E-08 0.614E+02 -.652E+02   0.601E-09 -.617E+02 0.674E+02   0.000E+00 0.339E+00 -.212E+01   0.260E-12 -.781E-03 -.487E-02
   -.441E-10 0.106E+02 -.204E+02   -.606E-09 -.114E+02 0.196E+02   0.000E+00 0.762E+00 0.837E+00   0.423E-12 0.154E-02 0.324E-02
   0.313E-08 -.106E+02 -.204E+02   0.272E-09 0.114E+02 0.196E+02   0.000E+00 -.762E+00 0.837E+00   0.486E-12 -.154E-02 0.324E-02
   -.127E+02 -.477E+01 -.144E+02   0.123E+02 0.498E+01 0.137E+02   0.422E+00 -.206E+00 0.675E+00   0.204E-02 0.326E-03 -.186E-02
   0.127E+02 0.477E+01 -.144E+02   -.123E+02 -.498E+01 0.137E+02   -.422E+00 0.206E+00 0.675E+00   -.204E-02 -.326E-03 -.186E-02
   -.127E+02 0.477E+01 -.144E+02   0.123E+02 -.498E+01 0.137E+02   0.422E+00 0.206E+00 0.675E+00   0.204E-02 -.326E-03 -.186E-02
   0.127E+02 -.477E+01 -.144E+02   -.123E+02 0.498E+01 0.137E+02   -.422E+00 -.206E+00 0.675E+00   -.204E-02 0.326E-03 -.186E-02
 -----------------------------------------------------------------------------------------------
   0.428E-07 0.354E-07 -.294E+00   -.231E-13 -.400E-13 0.142E-13   0.000E+00 0.416E-15 0.329E+00   -.142E-12 0.587E-11 -.389E-01
 
 
 POSITION                                       TOTAL-FORCE (eV/Angst)
 -----------------------------------------------------------------------------------
      0.00000      4.22421      2.68390         0.000000     -0.011734      0.031224
      3.63654      1.39825      6.18396         0.000000      0.011734      0.031224
      1.65815      3.03725      2.95271        -0.002479      0.000313      0.006866
      1.97839      2.58521      6.45277         0.002479     -0.000313      0.006866
      5.29470      2.58521      6.45277        -0.002479     -0.000313      0.006866
      5.61494      3.03725      2.95271         0.002479      0.000313      0.006866
      0.00000     -0.44774      0.92133         0.000000      0.022875     -0.016048
      3.63654      0.44774      4.42139         0.000000     -0.022875     -0.016048
      0.00000     -0.23684      4.37995         0.000000     -0.015345     -0.008845
      3.63654      0.23684      0.87989         0.000000      0.015345     -0.008845
      0.00000      2.12463      4.71586         0.000000      0.000174     -0.010077
      3.63654      3.49783      1.21580         0.000000     -0.000174     -0.010077
      2.05649      4.39089      4.91589         0.002729      0.002771     -0.004993
      1.58005      1.23157      1.41583        -0.002729     -0.002771     -0.004993
      5.69304      1.23157      1.41583         0.002729     -0.002771     -0.004993
      5.21659      4.39089      4.91589        -0.002729      0.002771     -0.004993
 -----------------------------------------------------------------------------------
    total drift:                                0.000000      0.000000     -0.002991


--------------------------------------------------------------------------------------------------------



  FREE ENERGIE OF THE ION-ELECTRON SYSTEM (eV)
  ---------------------------------------------------
  free  energy   TOTEN  =       -76.96889145 eV

  energy  without entropy=      -76.96889145  energy(sigma->0) =      -76.96889145
 
 d Force = 0.3945574E-04[-0.854E-07, 0.790E-04]  d Energy = 0.4115870E-04-0.170E-05
 d Force =-0.1083937E+00[-0.109E+00,-0.108E+00]  d Ewald  =-0.4902811E-01-0.594E-01


--------------------------------------------------------------------------------------------------------


    POTLOK:  cpu time    0.0041: real time    0.0041


--------------------------------------------------------------------------------------------------------




--------------------------------------------------------------------------------------------------------


  
 reached required accuracy - stopping structural energy minimisation
     LOOP+:  cpu time    0.7171: real time    0.7247
    4ORBIT:  cpu time    0.0000: real time    0.0000
 BZINTS: Fermi energy:  2.753729; 76.000000 electrons
         Band energy:-662.242485;  BLOECHL correction:  0.000000

 total amount of memory used by VASP MPI-rank0    34149. kBytes
=======================================================================

   base      :      30000. kBytes
   nonlr-proj:       1393. kBytes
   fftplans  :        772. kBytes
   grid      :       1361. kBytes
   one-center:          3. kBytes
   wavefun   :        620. kBytes
 
  
  
 General timing and accounting informations for this job:
 ========================================================
  
                  Total CPU time used (sec):      180.185
                            User time (sec):      179.405
                          System time (sec):        0.780
                         Elapsed time (sec):      182.045
  
                   Maximum memory used (kb):      201632.
                   Average memory used (kb):           0.
  
                          Minor page faults:        86671
                          Major page faults:           80
                 Voluntary context switches:         4307
