<?xml version="1.0" encoding="ISO-8859-1"?>
<modeling>
 <generator>
  <i name="program" type="string">vasp </i>
  <i name="version" type="string">5.4.4.18Apr17-6-g9f103f2a35  </i>
  <i name="subversion" type="string">(build Feb 28 2020 14:15:47) complex            parallel </i>
  <i name="platform" type="string">LinuxIFC </i>
  <i name="date" type="string">2022 08 07 </i>
  <i name="time" type="string">00:31:41 </i>
 </generator>
 <incar>
  <i type="int" name="ISTART">     0</i>
  <i type="string" name="PREC">accurate</i>
  <i type="string" name="ALGO"> FAST</i>
  <i type="int" name="ISPIN">     1</i>
  <i type="int" name="ICHARG">     2</i>
  <i type="int" name="INIWAV">     1</i>
  <i type="int" name="NELM">   100</i>
  <i type="int" name="IBRION">     2</i>
  <i name="EDIFF">      0.00002000</i>
  <i name="EDIFFG">      0.00020000</i>
  <i type="int" name="NSW">   100</i>
  <i type="int" name="ISIF">     3</i>
  <i name="ENCUT">    420.00000000</i>
  <i type="string" name="LREAL"> AUTO</i>
  <i type="int" name="ISMEAR">    -5</i>
  <i type="logical" name="LWAVE"> F  </i>
  <i type="logical" name="LCHARG"> F  </i>
  <v type="int" name="KPOINT_BSE">    -1     0     0     0</v>
  <i type="int" name="NELM">   100</i>
 </incar>
 <structure name="primitive_cell" >
  <crystal>
   <varray name="basis" >
    <v>       7.86926743       0.00000000       0.00000000 </v>
    <v>       0.00000000       5.61137398       0.00000000 </v>
    <v>       0.00000000       0.00000000       7.36216923 </v>
   </varray>
   <i name="volume">    325.09426949 </i>
   <varray name="rec_basis" >
    <v>       0.12707663       0.00000000       0.00000000 </v>
    <v>       0.00000000       0.17820947       0.00000000 </v>
    <v>       0.00000000       0.00000000       0.13582953 </v>
   </varray>
  </crystal>
  <varray name="positions" >
   <v>       0.00000000      -0.13337247       0.41048436 </v>
   <v>       0.00000000       0.07323600       0.18513284 </v>
   <v>       0.21475036      -0.33581282       0.42154189 </v>
   <v>      -0.21475036      -0.33581282       0.42154189 </v>
   <v>       0.00000000       0.06655419      -0.35550179 </v>
   <v>       0.00000000      -0.45946722      -0.38108423 </v>
   <v>       0.13295133       0.40298196       0.18020982 </v>
   <v>      -0.13295133       0.40298196       0.18020982 </v>
   <v>       0.36704867      -0.40298196      -0.31979018 </v>
   <v>      -0.36704867      -0.40298196      -0.31979018 </v>
   <v>       0.50000000      -0.06655419       0.14449821 </v>
   <v>       0.50000000      -0.07323600      -0.31486716 </v>
   <v>       0.28524964       0.33581282      -0.07845811 </v>
   <v>      -0.28524964       0.33581282      -0.07845811 </v>
   <v>       0.50000000       0.45946722       0.11891577 </v>
   <v>       0.50000000       0.13337247      -0.08951564 </v>
  </varray>
 </structure>
 <varray name="primitive_index" >
  <v type="int" >        1 </v>
  <v type="int" >        7 </v>
  <v type="int" >        3 </v>
  <v type="int" >        6 </v>
  <v type="int" >        9 </v>
  <v type="int" >       11 </v>
  <v type="int" >       14 </v>
  <v type="int" >       15 </v>
  <v type="int" >       13 </v>
  <v type="int" >       16 </v>
  <v type="int" >       10 </v>
  <v type="int" >        8 </v>
  <v type="int" >        4 </v>
  <v type="int" >        5 </v>
  <v type="int" >       12 </v>
  <v type="int" >        2 </v>
 </varray>
 <kpoints>
  <generation param="Monkhorst-Pack">
   <v type="int" name="divisions">       4        4        4 </v>
   <v name="usershift">      0.00000000       0.00000000       0.00000000 </v>
   <v name="genvec1">      0.25000000       0.00000000       0.00000000 </v>
   <v name="genvec2">      0.00000000       0.25000000       0.00000000 </v>
   <v name="genvec3">      0.00000000       0.00000000       0.25000000 </v>
   <v name="shift">      0.50000000       0.50000000       0.50000000 </v>
  </generation>
  <varray name="kpointlist" >
   <v>       0.12500000       0.12500000       0.12500000 </v>
   <v>       0.37500000       0.12500000       0.12500000 </v>
   <v>       0.12500000       0.37500000       0.12500000 </v>
   <v>       0.37500000       0.37500000       0.12500000 </v>
   <v>       0.12500000       0.12500000       0.37500000 </v>
   <v>       0.37500000       0.12500000       0.37500000 </v>
   <v>       0.12500000       0.37500000       0.37500000 </v>
   <v>       0.37500000       0.37500000       0.37500000 </v>
  </varray>
  <varray name="weights" >
   <v>       0.12500000 </v>
   <v>       0.12500000 </v>
   <v>       0.12500000 </v>
   <v>       0.12500000 </v>
   <v>       0.12500000 </v>
   <v>       0.12500000 </v>
   <v>       0.12500000 </v>
   <v>       0.12500000 </v>
  </varray>
  <varray name="tetrahedronlist"  type="int" >
   <v type="int" >        2        1        2        4        5 </v>
   <v type="int" >        2        1        3        4        5 </v>
   <v type="int" >        2        3        4        5        7 </v>
   <v type="int" >        2        2        4        5        6 </v>
   <v type="int" >        2        4        5        6        8 </v>
   <v type="int" >        2        4        5        7        8 </v>
   <v type="int" >        2        2        2        4        6 </v>
   <v type="int" >        2        2        4        4        6 </v>
   <v type="int" >        2        4        4        6        8 </v>
   <v type="int" >        2        2        4        6        6 </v>
   <v type="int" >        2        4        6        6        8 </v>
   <v type="int" >        2        4        6        8        8 </v>
   <v type="int" >        2        1        2        3        6 </v>
   <v type="int" >        2        2        3        4        6 </v>
   <v type="int" >        2        3        4        6        8 </v>
   <v type="int" >        2        1        3        5        6 </v>
   <v type="int" >        2        3        5        6        7 </v>
   <v type="int" >        2        3        6        7        8 </v>
   <v type="int" >        2        1        1        3        5 </v>
   <v type="int" >        2        1        3        3        5 </v>
   <v type="int" >        2        3        3        5        7 </v>
   <v type="int" >        2        1        3        5        5 </v>
   <v type="int" >        2        3        5        5        7 </v>
   <v type="int" >        2        3        5        7        7 </v>
   <v type="int" >        2        3        4        4        7 </v>
   <v type="int" >        2        3        3        4        7 </v>
   <v type="int" >        2        3        4        7        7 </v>
   <v type="int" >        2        4        4        7        8 </v>
   <v type="int" >        2        4        7        8        8 </v>
   <v type="int" >        2        4        7        7        8 </v>
   <v type="int" >        4        4        4        4        8 </v>
   <v type="int" >        4        4        4        8        8 </v>
   <v type="int" >        4        4        8        8        8 </v>
   <v type="int" >        2        3        3        4        8 </v>
   <v type="int" >        2        3        4        4        8 </v>
   <v type="int" >        2        3        4        8        8 </v>
   <v type="int" >        2        3        3        7        8 </v>
   <v type="int" >        2        3        7        7        8 </v>
   <v type="int" >        2        3        7        8        8 </v>
   <v type="int" >        4        3        3        3        7 </v>
   <v type="int" >        4        3        3        7        7 </v>
   <v type="int" >        4        3        7        7        7 </v>
   <v type="int" >        2        2        3        4        7 </v>
   <v type="int" >        2        1        2        3        7 </v>
   <v type="int" >        2        1        2        5        7 </v>
   <v type="int" >        2        2        4        7        8 </v>
   <v type="int" >        2        2        6        7        8 </v>
   <v type="int" >        2        2        5        6        7 </v>
   <v type="int" >        2        2        4        4        8 </v>
   <v type="int" >        2        2        2        4        8 </v>
   <v type="int" >        2        2        2        6        8 </v>
   <v type="int" >        2        2        4        8        8 </v>
   <v type="int" >        2        2        6        8        8 </v>
   <v type="int" >        2        2        6        6        8 </v>
   <v type="int" >        2        1        3        4        8 </v>
   <v type="int" >        2        1        2        4        8 </v>
   <v type="int" >        2        1        2        6        8 </v>
   <v type="int" >        2        1        3        7        8 </v>
   <v type="int" >        2        1        5        7        8 </v>
   <v type="int" >        2        1        5        6        8 </v>
   <v type="int" >        2        1        3        3        7 </v>
   <v type="int" >        2        1        1        3        7 </v>
   <v type="int" >        2        1        1        5        7 </v>
   <v type="int" >        2        1        3        7        7 </v>
   <v type="int" >        2        1        5        7        7 </v>
   <v type="int" >        2        1        5        5        7 </v>
   <v type="int" >        2        1        2        2        5 </v>
   <v type="int" >        2        1        1        2        5 </v>
   <v type="int" >        2        1        2        5        5 </v>
   <v type="int" >        2        2        2        5        6 </v>
   <v type="int" >        2        2        5        6        6 </v>
   <v type="int" >        2        2        5        5        6 </v>
   <v type="int" >        4        2        2        2        6 </v>
   <v type="int" >        4        2        2        6        6 </v>
   <v type="int" >        4        2        6        6        6 </v>
   <v type="int" >        2        1        1        2        6 </v>
   <v type="int" >        2        1        2        2        6 </v>
   <v type="int" >        2        1        2        6        6 </v>
   <v type="int" >        2        1        1        5        6 </v>
   <v type="int" >        2        1        5        5        6 </v>
   <v type="int" >        2        1        5        6        6 </v>
   <v type="int" >        4        1        1        1        5 </v>
   <v type="int" >        4        1        1        5        5 </v>
   <v type="int" >        4        1        5        5        5 </v>
   <v type="int" >        2        5        5        6        8 </v>
   <v type="int" >        2        5        5        7        8 </v>
   <v type="int" >        2        5        7        7        8 </v>
   <v type="int" >        2        5        6        6        8 </v>
   <v type="int" >        2        5        6        8        8 </v>
   <v type="int" >        2        5        7        8        8 </v>
   <v type="int" >        4        6        6        6        8 </v>
   <v type="int" >        4        6        6        8        8 </v>
   <v type="int" >        4        6        8        8        8 </v>
   <v type="int" >        2        5        6        6        7 </v>
   <v type="int" >        2        6        6        7        8 </v>
   <v type="int" >        2        6        7        8        8 </v>
   <v type="int" >        2        5        5        6        7 </v>
   <v type="int" >        2        5        6        7        7 </v>
   <v type="int" >        2        6        7        7        8 </v>
   <v type="int" >        4        5        5        5        7 </v>
   <v type="int" >        4        5        5        7        7 </v>
   <v type="int" >        4        5        7        7        7 </v>
   <v type="int" >        4        7        7        8        8 </v>
   <v type="int" >        4        7        7        7        8 </v>
   <v type="int" >        4        7        8        8        8 </v>
   <v type="int" >        6        8        8        8        8 </v>
   <v type="int" >        6        7        7        7        7 </v>
   <v type="int" >        4        5        5        6        6 </v>
   <v type="int" >        4        5        5        5        6 </v>
   <v type="int" >        4        5        6        6        6 </v>
   <v type="int" >        6        6        6        6        6 </v>
   <v type="int" >        6        5        5        5        5 </v>
   <v type="int" >        2        1        1        2        4 </v>
   <v type="int" >        2        1        1        3        4 </v>
   <v type="int" >        2        1        3        3        4 </v>
   <v type="int" >        2        1        2        2        4 </v>
   <v type="int" >        2        1        2        4        4 </v>
   <v type="int" >        2        1        3        4        4 </v>
   <v type="int" >        4        2        2        2        4 </v>
   <v type="int" >        4        2        2        4        4 </v>
   <v type="int" >        4        2        4        4        4 </v>
   <v type="int" >        2        1        2        2        3 </v>
   <v type="int" >        2        2        2        3        4 </v>
   <v type="int" >        2        2        3        4        4 </v>
   <v type="int" >        2        1        1        2        3 </v>
   <v type="int" >        2        1        2        3        3 </v>
   <v type="int" >        2        2        3        3        4 </v>
   <v type="int" >        4        1        1        1        3 </v>
   <v type="int" >        4        1        1        3        3 </v>
   <v type="int" >        4        1        3        3        3 </v>
   <v type="int" >        4        3        3        4        4 </v>
   <v type="int" >        4        3        3        3        4 </v>
   <v type="int" >        4        3        4        4        4 </v>
   <v type="int" >        6        4        4        4        4 </v>
   <v type="int" >        6        3        3        3        3 </v>
   <v type="int" >        4        1        1        2        2 </v>
   <v type="int" >        4        1        1        1        2 </v>
   <v type="int" >        4        1        2        2        2 </v>
   <v type="int" >        6        2        2        2        2 </v>
   <v type="int" >        6        1        1        1        1 </v>
  </varray>
  <i name="volumeweight">      0.00260417 </i>
 </kpoints>
 <parameters>
  <separator name="general" >
   <i type="string" name="SYSTEM">unknown system</i>
   <i type="logical" name="LCOMPAT"> F  </i>
  </separator>
  <separator name="electronic" >
   <i type="string" name="PREC">accura</i>
   <i name="ENMAX">    420.00000000</i>
   <i name="ENAUG">    628.94500000</i>
   <i name="EDIFF">      0.00002000</i>
   <i type="int" name="IALGO">    68</i>
   <i type="int" name="IWAVPR">    11</i>
   <i type="int" name="NBANDS">    48</i>
   <i name="NELECT">     76.00000000</i>
   <i type="int" name="TURBO">     0</i>
   <i type="int" name="IRESTART">     0</i>
   <i type="int" name="NREBOOT">     0</i>
   <i type="int" name="NMIN">     0</i>
   <i name="EREF">      0.00000000</i>
   <separator name="electronic smearing" >
    <i type="int" name="ISMEAR">    -5</i>
    <i name="SIGMA">      0.20000000</i>
    <i name="KSPACING">      0.50000000</i>
    <i type="logical" name="KGAMMA"> T  </i>
   </separator>
   <separator name="electronic projectors" >
    <i type="logical" name="LREAL"> T  </i>
    <v name="ROPT">     -0.00025000     -0.00025000     -0.00025000</v>
    <i type="int" name="LMAXPAW">  -100</i>
    <i type="int" name="LMAXMIX">     2</i>
    <i type="logical" name="NLSPLINE"> F  </i>
   </separator>
   <separator name="electronic startup" >
    <i type="int" name="ISTART">     0</i>
    <i type="int" name="ICHARG">     2</i>
    <i type="int" name="INIWAV">     1</i>
   </separator>
   <separator name="electronic spin" >
    <i type="int" name="ISPIN">     1</i>
    <i type="logical" name="LNONCOLLINEAR"> F  </i>
    <v name="MAGMOM">      1.00000000      1.00000000      1.00000000      1.00000000      1.00000000      1.00000000      1.00000000      1.00000000      1.00000000      1.00000000      1.00000000      1.00000000      1.00000000      1.00000000      1.00000000      1.00000000</v>
    <i name="NUPDOWN">     -1.00000000</i>
    <i type="logical" name="LSORBIT"> F  </i>
    <v name="SAXIS">      0.00000000      0.00000000      1.00000000</v>
    <i type="logical" name="LSPIRAL"> F  </i>
    <v name="QSPIRAL">      0.00000000      0.00000000      0.00000000</v>
    <i type="logical" name="LZEROZ"> F  </i>
   </separator>
   <separator name="electronic exchange-correlation" >
    <i type="logical" name="LASPH"> F  </i>
    <i type="logical" name="LMETAGGA"> F  </i>
   </separator>
   <separator name="electronic convergence" >
    <i type="int" name="NELM">   100</i>
    <i type="int" name="NELMDL">    -5</i>
    <i type="int" name="NELMIN">     2</i>
    <i name="ENINI">    420.00000000</i>
    <separator name="electronic convergence detail" >
     <i type="logical" name="LDIAG"> T  </i>
     <i type="logical" name="LSUBROT"> F  </i>
     <i name="WEIMIN">      0.00100000</i>
     <i name="EBREAK">      0.00000010</i>
     <i name="DEPER">      0.30000000</i>
     <i type="int" name="NRMM">     4</i>
     <i name="TIME">      0.40000000</i>
    </separator>
   </separator>
   <separator name="electronic mixer" >
    <i name="AMIX">      0.40000000</i>
    <i name="BMIX">      1.00000000</i>
    <i name="AMIN">      0.10000000</i>
    <i name="AMIX_MAG">      1.60000000</i>
    <i name="BMIX_MAG">      1.00000000</i>
    <separator name="electronic mixer details" >
     <i type="int" name="IMIX">     4</i>
     <i type="logical" name="MIXFIRST"> F  </i>
     <i type="int" name="MAXMIX">   -45</i>
     <i name="WC">    100.00000000</i>
     <i type="int" name="INIMIX">     1</i>
     <i type="int" name="MIXPRE">     1</i>
     <i type="int" name="MREMOVE">     5</i>
    </separator>
   </separator>
   <separator name="electronic dipolcorrection" >
    <i type="logical" name="LDIPOL"> F  </i>
    <i type="logical" name="LMONO"> F  </i>
    <i type="int" name="IDIPOL">     0</i>
    <i name="EPSILON">      1.00000000</i>
    <v name="DIPOL">   -100.00000000   -100.00000000   -100.00000000</v>
    <i name="EFIELD">      0.00000000</i>
   </separator>
  </separator>
  <separator name="grids" >
   <i type="int" name="NGX">    54</i>
   <i type="int" name="NGY">    40</i>
   <i type="int" name="NGZ">    50</i>
   <i type="int" name="NGXF">   108</i>
   <i type="int" name="NGYF">    80</i>
   <i type="int" name="NGZF">   100</i>
   <i type="logical" name="ADDGRID"> F  </i>
  </separator>
  <separator name="ionic" >
   <i type="int" name="NSW">   100</i>
   <i type="int" name="IBRION">     2</i>
   <i type="int" name="MDALGO">     0</i>
   <i type="int" name="ISIF">     3</i>
   <i name="PSTRESS">      0.00000000</i>
   <i name="EDIFFG">      0.00020000</i>
   <i type="int" name="NFREE">     1</i>
   <i name="POTIM">      0.50000000</i>
   <i name="SMASS">     -3.00000000</i>
   <i name="SCALEE">      1.00000000</i>
  </separator>
  <separator name="ionic md" >
   <i name="TEBEG">      0.00010000</i>
   <i name="TEEND">      0.00010000</i>
   <i type="int" name="NBLOCK">     1</i>
   <i type="int" name="KBLOCK">   100</i>
   <i type="int" name="NPACO">   256</i>
   <i name="APACO">     16.00000000</i>
  </separator>
  <separator name="symmetry" >
   <i type="int" name="ISYM">     2</i>
   <i name="SYMPREC">      0.00001000</i>
  </separator>
  <separator name="dos" >
   <i type="int" name="LORBIT">     0</i>
   <v name="RWIGS">     -1.00000000     -1.00000000     -1.00000000</v>
   <i type="int" name="NEDOS">   301</i>
   <i name="EMIN">     10.00000000</i>
   <i name="EMAX">    -10.00000000</i>
   <i name="EFERMI">      0.00000000</i>
  </separator>
  <separator name="writing" >
   <i type="int" name="NWRITE">     2</i>
   <i type="logical" name="LWAVE"> F  </i>
   <i type="logical" name="LDOWNSAMPLE"> F  </i>
   <i type="logical" name="LCHARG"> F  </i>
   <i type="logical" name="LPARD"> F  </i>
   <i type="logical" name="LVTOT"> F  </i>
   <i type="logical" name="LVHAR"> F  </i>
   <i type="logical" name="LELF"> F  </i>
   <i type="logical" name="LOPTICS"> F  </i>
   <v name="STM">      0.00000000      0.00000000      0.00000000      0.00000000      0.00000000      0.00000000      0.00000000</v>
  </separator>
  <separator name="performance" >
   <i type="int" name="NPAR">     4</i>
   <i type="int" name="NSIM">     4</i>
   <i type="int" name="NBLK">    -1</i>
   <i type="logical" name="LPLANE"> T  </i>
   <i type="logical" name="LSCALAPACK"> T  </i>
   <i type="logical" name="LSCAAWARE"> F  </i>
   <i type="logical" name="LSCALU"> F  </i>
   <i type="logical" name="LASYNC"> F  </i>
   <i type="logical" name="LORBITALREAL"> F  </i>
  </separator>
  <separator name="miscellaneous" >
   <i type="int" name="IDIOT">     3</i>
   <i type="int" name="ISPECIAL">     0</i>
   <i type="logical" name="LMUSIC"> F  </i>
   <v name="POMASS">     30.97400000     32.06600000      7.01000000</v>
   <v name="DARWINR">      0.00000000      0.00000000      0.00000000</v>
   <v name="DARWINV">      1.00000000      1.00000000      1.00000000</v>
   <i type="logical" name="LCORR"> T  </i>
  </separator>
  <i type="logical" name="GGA_COMPAT"> T  </i>
  <i type="logical" name="LBERRY"> F  </i>
  <i type="int" name="ICORELEVEL">     0</i>
  <i type="logical" name="LDAU"> F  </i>
  <i type="int" name="I_CONSTRAINED_M">     0</i>
  <separator name="electronic exchange-correlation" >
   <i type="string" name="GGA">--</i>
   <i type="int" name="VOSKOWN">     0</i>
   <i type="logical" name="LHFCALC"> F  </i>
   <i type="string" name="PRECFOCK"></i>
   <i type="logical" name="LSYMGRAD"> F  </i>
   <i type="logical" name="LHFONE"> F  </i>
   <i type="logical" name="LRHFCALC"> F  </i>
   <i type="logical" name="LTHOMAS"> F  </i>
   <i type="logical" name="LMODELHF"> F  </i>
   <i name="ENCUT4O">     -1.00000000</i>
   <i type="int" name="EXXOEP">     0</i>
   <i type="int" name="FOURORBIT">     0</i>
   <i name="AEXX">      0.00000000</i>
   <i name="HFALPHA">      0.00000000</i>
   <i name="MCALPHA">      0.00000000</i>
   <i name="ALDAX">      1.00000000</i>
   <i name="AGGAX">      1.00000000</i>
   <i name="ALDAC">      1.00000000</i>
   <i name="AGGAC">      1.00000000</i>
   <i type="int" name="NKREDX">     1</i>
   <i type="int" name="NKREDY">     1</i>
   <i type="int" name="NKREDZ">     1</i>
   <i type="logical" name="SHIFTRED"> F  </i>
   <i type="logical" name="ODDONLY"> F  </i>
   <i type="logical" name="EVENONLY"> F  </i>
   <i type="int" name="LMAXFOCK">     0</i>
   <i type="int" name="NMAXFOCKAE">     0</i>
   <i type="logical" name="LFOCKAEDFT"> F  </i>
   <i name="HFSCREEN">      0.00000000</i>
   <i name="HFSCREENC">      0.00000000</i>
   <i type="int" name="NBANDSGWLOW">     0</i>
  </separator>
  <separator name="vdW DFT" >
   <i type="logical" name="LUSE_VDW"> F  </i>
   <i name="Zab_VDW">     -0.84910000</i>
   <i name="PARAM1">      0.12340000</i>
   <i name="PARAM2">      1.00000000</i>
   <i name="PARAM3">      0.00000000</i>
  </separator>
  <separator name="model GW" >
   <i type="int" name="MODEL_GW">     0</i>
   <i name="MODEL_EPS0">     12.19103511</i>
   <i name="MODEL_ALPHA">      1.00000000</i>
  </separator>
  <separator name="linear response parameters" >
   <i type="logical" name="LEPSILON"> F  </i>
   <i type="logical" name="LRPA"> F  </i>
   <i type="logical" name="LNABLA"> F  </i>
   <i type="logical" name="LVEL"> F  </i>
   <i type="int" name="KINTER">     0</i>
   <i name="CSHIFT">      0.10000000</i>
   <i name="OMEGAMAX">     -1.00000000</i>
   <i name="DEG_THRESHOLD">      0.00200000</i>
   <i name="RTIME">     -0.10000000</i>
   <i name="WPLASMAI">      0.00000000</i>
   <v name="DFIELD">      0.00000000      0.00000000      0.00000000</v>
   <v name="WPLASMA">      0.00000000      0.00000000      0.00000000      0.00000000      0.00000000      0.00000000      0.00000000      0.00000000      0.00000000</v>
  </separator>
  <separator name="orbital magnetization" >
   <i type="logical" name="NUCIND"> F  </i>
   <v name="MAGPOS">      0.00000000      0.00000000      0.00000000</v>
   <i type="logical" name="LNICSALL"> T  </i>
   <i type="logical" name="ORBITALMAG"> F  </i>
   <i type="logical" name="LMAGBLOCH"> F  </i>
   <i type="logical" name="LCHIMAG"> F  </i>
   <i type="logical" name="LGAUGE"> T  </i>
   <i type="int" name="MAGATOM">     0</i>
   <v name="MAGDIPOL">      0.00000000      0.00000000      0.00000000</v>
   <v name="AVECCONST">      0.00000000      0.00000000      0.00000000</v>
  </separator>
  <separator name="response functions" >
   <i type="logical" name="LADDER"> F  </i>
   <i type="logical" name="LRPAFORCE"> F  </i>
   <i type="logical" name="LFXC"> F  </i>
   <i type="logical" name="LHARTREE"> T  </i>
   <i type="int" name="IBSE">     0</i>
   <v type="int" name="KPOINT">    -1     0     0     0</v>
   <i type="logical" name="LTCTE"> F  </i>
   <i type="logical" name="LTETE"> F  </i>
   <i type="logical" name="LTRIPLET"> F  </i>
   <i type="logical" name="LFXCEPS"> F  </i>
   <i type="logical" name="LFXHEG"> F  </i>
   <i type="int" name="NATURALO">     2</i>
   <i type="logical" name="L2ORDER"> F  </i>
   <i type="logical" name="LMP2LT"> F  </i>
   <i type="logical" name="LUSEW"> F  </i>
   <i name="ENCUTGW">     -2.00000000</i>
   <i name="ENCUTGWSOFT">     -2.00000000</i>
   <i name="ENCUTLF">     -1.00000000</i>
   <i type="int" name="LMAXMP2">    -1</i>
   <i name="SCISSOR">      0.00000000</i>
   <i type="int" name="NOMEGA">     0</i>
   <i type="int" name="NOMEGAR">     0</i>
   <i type="int" name="NBANDSGW">    -1</i>
   <i type="int" name="NBANDSO">    -1</i>
   <i type="int" name="NBANDSV">    -1</i>
   <i type="int" name="NELM">   100</i>
   <i type="int" name="NELMHF">     1</i>
   <i type="int" name="DIM">     3</i>
   <i type="int" name="ANTIRES">     0</i>
   <i name="OMEGAMAX">    -30.00000000</i>
   <i name="OMEGAMIN">    -30.00000000</i>
   <i name="OMEGATL">   -200.00000000</i>
   <i type="int" name="OMEGAGRID">   140</i>
   <i name="CSHIFT">     -0.10000000</i>
   <i type="logical" name="SELFENERGY"> F  </i>
   <i type="logical" name="LSPECTRAL"> F  </i>
   <i type="logical" name="LSPECTRALGW"> F  </i>
   <i type="logical" name="LSINGLES"> F  </i>
   <i type="logical" name="LFERMIGW"> F  </i>
   <i type="logical" name="ODDONLYGW"> F  </i>
   <i type="logical" name="EVENONLYGW"> F  </i>
   <i type="int" name="NKREDLFX">     1</i>
   <i type="int" name="NKREDLFY">     1</i>
   <i type="int" name="NKREDLFZ">     1</i>
   <i type="int" name="MAXMEM">  2800</i>
   <i type="int" name="TELESCOPE">     0</i>
   <i type="int" name="TAUPAR">     1</i>
   <i type="int" name="OMEGAPAR">    -1</i>
   <i name="LAMBDA">      1.00000000</i>
  </separator>
  <separator name="External order field" >
   <i name="OFIELD_KAPPA">      0.00000000</i>
   <v name="OFIELD_K">      0.00000000      0.00000000      0.00000000</v>
   <i name="OFIELD_Q6_NEAR">      0.00000000</i>
   <i name="OFIELD_Q6_FAR">      0.00000000</i>
   <i name="OFIELD_A">      0.00000000</i>
  </separator>
 </parameters>
 <atominfo>
  <atoms>      16 </atoms>
  <types>       3 </types>
  <array name="atoms" >
   <dimension dim="1">ion</dimension>
   <field type="string">element</field>
   <field type="int">atomtype</field>
   <set>
    <rc><c>P </c><c>   1</c></rc>
    <rc><c>P </c><c>   1</c></rc>
    <rc><c>S </c><c>   2</c></rc>
    <rc><c>S </c><c>   2</c></rc>
    <rc><c>S </c><c>   2</c></rc>
    <rc><c>S </c><c>   2</c></rc>
    <rc><c>S </c><c>   2</c></rc>
    <rc><c>S </c><c>   2</c></rc>
    <rc><c>S </c><c>   2</c></rc>
    <rc><c>S </c><c>   2</c></rc>
    <rc><c>Li</c><c>   3</c></rc>
    <rc><c>Li</c><c>   3</c></rc>
    <rc><c>Li</c><c>   3</c></rc>
    <rc><c>Li</c><c>   3</c></rc>
    <rc><c>Li</c><c>   3</c></rc>
    <rc><c>Li</c><c>   3</c></rc>
   </set>
  </array>
  <array name="atomtypes" >
   <dimension dim="1">type</dimension>
   <field type="int">atomspertype</field>
   <field type="string">element</field>
   <field>mass</field>
   <field>valence</field>
   <field type="string">pseudopotential</field>
   <set>
    <rc><c>   2</c><c>P </c><c>     30.97400000</c><c>      5.00000000</c><c>  PAW P 26Mar2009                       </c></rc>
    <rc><c>   8</c><c>S </c><c>     32.06600000</c><c>      6.00000000</c><c>  PAW S 27Mar2009                       </c></rc>
    <rc><c>   6</c><c>Li</c><c>      7.01000000</c><c>      3.00000000</c><c>  PAW Li_sv 10Sep2004                   </c></rc>
   </set>
  </array>
 </atominfo>
 <structure name="initialpos" >
  <crystal>
   <varray name="basis" >
    <v>       7.86926743       0.00000000       0.00000000 </v>
    <v>       0.00000000       5.61137398       0.00000000 </v>
    <v>       0.00000000       0.00000000       7.36216923 </v>
   </varray>
   <i name="volume">    325.09426949 </i>
   <varray name="rec_basis" >
    <v>       0.12707663       0.00000000       0.00000000 </v>
    <v>       0.00000000       0.17820947       0.00000000 </v>
    <v>       0.00000000       0.00000000       0.13582953 </v>
   </varray>
  </crystal>
  <varray name="positions" >
   <v>       0.00000000       0.86662753       0.41048436 </v>
   <v>       0.50000000       0.13337247       0.91048436 </v>
   <v>       0.21475036       0.66418718       0.42154189 </v>
   <v>       0.28524964       0.33581282       0.92154189 </v>
   <v>       0.71475036       0.33581282       0.92154189 </v>
   <v>       0.78524964       0.66418718       0.42154189 </v>
   <v>       0.00000000       0.07323600       0.18513284 </v>
   <v>       0.50000000       0.92676400       0.68513284 </v>
   <v>       0.00000000       0.06655419       0.64449821 </v>
   <v>       0.50000000       0.93344581       0.14449821 </v>
   <v>       0.00000000       0.54053278       0.61891577 </v>
   <v>       0.50000000       0.45946722       0.11891577 </v>
   <v>       0.36704867       0.59701804       0.68020982 </v>
   <v>       0.13295133       0.40298196       0.18020982 </v>
   <v>       0.86704867       0.40298196       0.18020982 </v>
   <v>       0.63295133       0.59701804       0.68020982 </v>
  </varray>
 </structure>
 <calculation>
  <scstep>
   <time name="dav">    0.21    0.22</time>
   <time name="total">    0.23    0.24</time>
   <energy>
    <i name="alphaZ">     60.69918809 </i>
    <i name="ewald">  -2419.22202122 </i>
    <i name="hartreedc">   -828.06160648 </i>
    <i name="XCdc">    181.10742944 </i>
    <i name="pawpsdc">   2494.22442938 </i>
    <i name="pawaedc">  -2541.12215007 </i>
    <i name="eentropy">      0.00000000 </i>
    <i name="bandstr">   -196.05637399 </i>
    <i name="atom">   3769.08782378 </i>
    <i name="e_fr_energy">    520.65671894 </i>
    <i name="e_wo_entrp">    520.65671894 </i>
    <i name="e_0_energy">    520.65671894 </i>
   </energy>
  </scstep>
  <scstep>
   <time name="dav">    0.21    0.21</time>
   <time name="total">    0.21    0.21</time>
   <energy>
    <i name="e_fr_energy">      2.88461475 </i>
    <i name="e_wo_entrp">      2.88461475 </i>
    <i name="e_0_energy">      2.88461475 </i>
   </energy>
  </scstep>
  <scstep>
   <time name="dav">    0.24    0.24</time>
   <time name="total">    0.24    0.24</time>
   <energy>
    <i name="e_fr_energy">    -65.08357116 </i>
    <i name="e_wo_entrp">    -65.08357116 </i>
    <i name="e_0_energy">    -65.08357116 </i>
   </energy>
  </scstep>
  <scstep>
   <time name="dav">    0.30    0.30</time>
   <time name="total">    0.30    0.30</time>
   <energy>
    <i name="e_fr_energy">    -73.41353643 </i>
    <i name="e_wo_entrp">    -73.41353643 </i>
    <i name="e_0_energy">    -73.41353643 </i>
   </energy>
  </scstep>
  <scstep>
   <time name="dav">    0.24    0.24</time>
   <time name="total">    0.27    0.27</time>
   <energy>
    <i name="e_fr_energy">    -74.65252041 </i>
    <i name="e_wo_entrp">    -74.65252041 </i>
    <i name="e_0_energy">    -74.65252041 </i>
   </energy>
  </scstep>
  <scstep>
   <time name="diag">    0.06    0.06</time>
   <time name="diis">    0.10    0.10</time>
   <time name="orth">    0.01    0.01</time>
   <time name="total">    0.19    0.19</time>
   <energy>
    <i name="e_fr_energy">    -71.93571489 </i>
    <i name="e_wo_entrp">    -71.93571489 </i>
    <i name="e_0_energy">    -71.93571489 </i>
   </energy>
  </scstep>
  <scstep>
   <time name="diag">    0.05    0.05</time>
   <time name="diis">    0.10    0.10</time>
   <time name="orth">    0.01    0.01</time>
   <time name="total">    0.19    0.19</time>
   <energy>
    <i name="e_fr_energy">    -71.34173473 </i>
    <i name="e_wo_entrp">    -71.34173473 </i>
    <i name="e_0_energy">    -71.34173473 </i>
   </energy>
  </scstep>
  <scstep>
   <time name="diag">    0.06    0.06</time>
   <time name="diis">    0.12    0.12</time>
   <time name="orth">    0.01    0.01</time>
   <time name="total">    0.22    0.22</time>
   <energy>
    <i name="e_fr_energy">    -71.21259159 </i>
    <i name="e_wo_entrp">    -71.21259159 </i>
    <i name="e_0_energy">    -71.21259159 </i>
   </energy>
  </scstep>
  <scstep>
   <time name="diag">    0.05    0.05</time>
   <time name="diis">    0.13    0.13</time>
   <time name="orth">    0.01    0.01</time>
   <time name="total">    0.23    0.23</time>
   <energy>
    <i name="e_fr_energy">    -71.20843576 </i>
    <i name="e_wo_entrp">    -71.20843576 </i>
    <i name="e_0_energy">    -71.20843576 </i>
   </energy>
  </scstep>
  <scstep>
   <time name="diag">    0.06    0.06</time>
   <time name="diis">    0.15    0.15</time>
   <time name="orth">    0.01    0.01</time>
   <time name="total">    0.24    0.24</time>
   <energy>
    <i name="e_fr_energy">    -71.20956787 </i>
    <i name="e_wo_entrp">    -71.20956787 </i>
    <i name="e_0_energy">    -71.20956787 </i>
   </energy>
  </scstep>
  <scstep>
   <time name="diag">    0.06    0.06</time>
   <time name="diis">    0.14    0.14</time>
   <time name="orth">    0.01    0.01</time>
   <time name="total">    0.23    0.23</time>
   <energy>
    <i name="e_fr_energy">    -71.21045447 </i>
    <i name="e_wo_entrp">    -71.21045447 </i>
    <i name="e_0_energy">    -71.21045447 </i>
   </energy>
  </scstep>
  <scstep>
   <time name="diag">    0.05    0.05</time>
   <time name="diis">    0.13    0.13</time>
   <time name="orth">    0.01    0.01</time>
   <time name="total">    0.22    0.22</time>
   <energy>
    <i name="e_fr_energy">    -71.21074798 </i>
    <i name="e_wo_entrp">    -71.21074798 </i>
    <i name="e_0_energy">    -71.21074798 </i>
   </energy>
  </scstep>
  <scstep>
   <time name="diag">    0.05    0.05</time>
   <time name="diis">    0.11    0.11</time>
   <time name="orth">    0.01    0.01</time>
   <time name="total">    0.20    0.20</time>
   <energy>
    <i name="e_fr_energy">    -71.21088677 </i>
    <i name="e_wo_entrp">    -71.21088677 </i>
    <i name="e_0_energy">    -71.21088677 </i>
   </energy>
  </scstep>
  <scstep>
   <time name="diag">    0.05    0.05</time>
   <time name="diis">    0.11    0.11</time>
   <time name="orth">    0.01    0.01</time>
   <time name="total">    0.20    0.20</time>
   <energy>
    <i name="e_fr_energy">    -71.21094541 </i>
    <i name="e_wo_entrp">    -71.21094541 </i>
    <i name="e_0_energy">    -71.21094541 </i>
   </energy>
  </scstep>
  <scstep>
   <time name="diag">    0.05    0.05</time>
   <time name="diis">    0.09    0.09</time>
   <time name="orth">    0.01    0.01</time>
   <time name="total">    0.18    0.18</time>
   <energy>
    <i name="e_fr_energy">    -71.21097071 </i>
    <i name="e_wo_entrp">    -71.21097071 </i>
    <i name="e_0_energy">    -71.21097071 </i>
   </energy>
  </scstep>
  <scstep>
   <time name="diag">    0.05    0.05</time>
   <time name="diis">    0.08    0.08</time>
   <time name="orth">    0.01    0.01</time>
   <time name="total">    0.15    0.15</time>
   <energy>
    <i name="alphaZ">     60.69918809 </i>
    <i name="ewald">  -2419.22202122 </i>
    <i name="hartreedc">   -877.90597571 </i>
    <i name="XCdc">    185.27723445 </i>
    <i name="pawpsdc">   7398.91844575 </i>
    <i name="pawaedc">  -7448.32181950 </i>
    <i name="eentropy">      0.00000000 </i>
    <i name="bandstr">   -739.74385733 </i>
    <i name="atom">   3769.08782378 </i>
    <i name="e_fr_energy">    -71.21098167 </i>
    <i name="e_wo_entrp">    -71.21098167 </i>
    <i name="e_0_energy">    -71.21098167 </i>
   </energy>
  </scstep>
  <structure>
   <crystal>
    <varray name="basis" >
     <v>       7.86926743       0.00000000       0.00000000 </v>
     <v>       0.00000000       5.61137398       0.00000000 </v>
     <v>       0.00000000       0.00000000       7.36216923 </v>
    </varray>
    <i name="volume">    325.09426949 </i>
    <varray name="rec_basis" >
     <v>       0.12707663       0.00000000       0.00000000 </v>
     <v>       0.00000000       0.17820947       0.00000000 </v>
     <v>       0.00000000       0.00000000       0.13582953 </v>
    </varray>
   </crystal>
   <varray name="positions" >
    <v>       0.00000000       0.86662753       0.41048436 </v>
    <v>       0.50000000       0.13337247       0.91048436 </v>
    <v>       0.21475036       0.66418718       0.42154189 </v>
    <v>       0.28524964       0.33581282       0.92154189 </v>
    <v>       0.71475036       0.33581282       0.92154189 </v>
    <v>       0.78524964       0.66418718       0.42154189 </v>
    <v>       0.00000000       0.07323600       0.18513284 </v>
    <v>       0.50000000       0.92676400       0.68513284 </v>
    <v>       0.00000000       0.06655419       0.64449821 </v>
    <v>       0.50000000       0.93344581       0.14449821 </v>
    <v>       0.00000000       0.54053278       0.61891577 </v>
    <v>       0.50000000       0.45946722       0.11891577 </v>
    <v>       0.36704867       0.59701804       0.68020982 </v>
    <v>       0.13295133       0.40298196       0.18020982 </v>
    <v>       0.86704867       0.40298196       0.18020982 </v>
    <v>       0.63295133       0.59701804       0.68020982 </v>
   </varray>
  </structure>
  <varray name="forces" >
   <v>       0.00000000       3.01054334       1.34128307 </v>
   <v>       0.00000000      -3.01054334       1.34128307 </v>
   <v>      -0.21492809      -0.72958759      -0.95061360 </v>
   <v>       0.21492809       0.72958759      -0.95061360 </v>
   <v>      -0.21492809       0.72958759      -0.95061360 </v>
   <v>       0.21492809      -0.72958759      -0.95061360 </v>
   <v>       0.00000000      -2.17935207      -0.41716365 </v>
   <v>       0.00000000       2.17935207      -0.41716365 </v>
   <v>       0.00000000      -0.78658974      -0.63414500 </v>
   <v>       0.00000000       0.78658974      -0.63414500 </v>
   <v>       0.00000000      -1.05868450       0.60908247 </v>
   <v>       0.00000000       1.05868450       0.60908247 </v>
   <v>      -1.83615794      -0.47313476       0.50108515 </v>
   <v>       1.83615794       0.47313476       0.50108515 </v>
   <v>      -1.83615794       0.47313476       0.50108515 </v>
   <v>       1.83615794      -0.47313476       0.50108515 </v>
  </varray>
  <varray name="stress" >
   <v>      34.54873114       0.00000000       0.00000000 </v>
   <v>       0.00000000      -6.19492901       0.00000000 </v>
   <v>       0.00000000       0.00000000      12.11915709 </v>
  </varray>
  <energy>
   <i name="e_fr_energy">    -71.21098167 </i>
   <i name="e_wo_entrp">    -71.21098167 </i>
   <i name="e_0_energy">      0.00000000 </i>
  </energy>
  <time name="totalsc">    3.70    3.72</time>
 </calculation>
 <calculation>
  <scstep>
   <time name="dav">    0.18    0.18</time>
   <time name="total">    0.21    0.21</time>
   <energy>
    <i name="alphaZ">     59.22973986 </i>
    <i name="ewald">  -2413.39894510 </i>
    <i name="hartreedc">   -857.75091289 </i>
    <i name="XCdc">    183.55335437 </i>
    <i name="pawpsdc">   7398.76836619 </i>
    <i name="pawaedc">  -7448.17165595 </i>
    <i name="eentropy">      0.00000000 </i>
    <i name="bandstr">   -762.83387335 </i>
    <i name="atom">   3769.08782378 </i>
    <i name="e_fr_energy">    -71.51610310 </i>
    <i name="e_wo_entrp">    -71.51610310 </i>
    <i name="e_0_energy">    -71.51610310 </i>
   </energy>
  </scstep>
  <scstep>
   <time name="diag">    0.05    0.05</time>
   <time name="diis">    0.12    0.12</time>
   <time name="orth">    0.01    0.01</time>
   <time name="total">    0.21    0.21</time>
   <energy>
    <i name="e_fr_energy">    -72.53526608 </i>
    <i name="e_wo_entrp">    -72.53526608 </i>
    <i name="e_0_energy">    -72.53526608 </i>
   </energy>
  </scstep>
  <scstep>
   <time name="diag">    0.05    0.05</time>
   <time name="diis">    0.16    0.16</time>
   <time name="orth">    0.01    0.01</time>
   <time name="total">    0.25    0.25</time>
   <energy>
    <i name="e_fr_energy">    -72.60900591 </i>
    <i name="e_wo_entrp">    -72.60900591 </i>
    <i name="e_0_energy">    -72.60900591 </i>
   </energy>
  </scstep>
  <scstep>
   <time name="diag">    0.05    0.05</time>
   <time name="diis">    0.15    0.15</time>
   <time name="orth">    0.01    0.01</time>
   <time name="total">    0.24    0.24</time>
   <energy>
    <i name="e_fr_energy">    -72.61920731 </i>
    <i name="e_wo_entrp">    -72.61920731 </i>
    <i name="e_0_energy">    -72.61920731 </i>
   </energy>
  </scstep>
  <scstep>
   <time name="diag">    0.06    0.06</time>
   <time name="diis">    0.16    0.16</time>
   <time name="orth">    0.01    0.01</time>
   <time name="total">    0.25    0.26</time>
   <energy>
    <i name="e_fr_energy">    -72.62406185 </i>
    <i name="e_wo_entrp">    -72.62406185 </i>
    <i name="e_0_energy">    -72.62406185 </i>
   </energy>
  </scstep>
  <scstep>
   <time name="diag">    0.05    0.05</time>
   <time name="diis">    0.16    0.16</time>
   <time name="orth">    0.01    0.01</time>
   <time name="total">    0.25    0.25</time>
   <energy>
    <i name="e_fr_energy">    -72.62861349 </i>
    <i name="e_wo_entrp">    -72.62861349 </i>
    <i name="e_0_energy">    -72.62861349 </i>
   </energy>
  </scstep>
  <scstep>
   <time name="diag">    0.05    0.05</time>
   <time name="diis">    0.17    0.17</time>
   <time name="orth">    0.01    0.01</time>
   <time name="total">    0.26    0.26</time>
   <energy>
    <i name="e_fr_energy">    -72.63061726 </i>
    <i name="e_wo_entrp">    -72.63061726 </i>
    <i name="e_0_energy">    -72.63061726 </i>
   </energy>
  </scstep>
  <scstep>
   <time name="diag">    0.05    0.05</time>
   <time name="diis">    0.17    0.17</time>
   <time name="orth">    0.01    0.01</time>
   <time name="total">    0.26    0.26</time>
   <energy>
    <i name="e_fr_energy">    -72.63153036 </i>
    <i name="e_wo_entrp">    -72.63153036 </i>
    <i name="e_0_energy">    -72.63153036 </i>
   </energy>
  </scstep>
  <scstep>
   <time name="diag">    0.05    0.05</time>
   <time name="diis">    0.15    0.15</time>
   <time name="orth">    0.01    0.01</time>
   <time name="total">    0.24    0.24</time>
   <energy>
    <i name="e_fr_energy">    -72.63187196 </i>
    <i name="e_wo_entrp">    -72.63187196 </i>
    <i name="e_0_energy">    -72.63187196 </i>
   </energy>
  </scstep>
  <scstep>
   <time name="diag">    0.05    0.05</time>
   <time name="diis">    0.15    0.15</time>
   <time name="orth">    0.01    0.01</time>
   <time name="total">    0.24    0.24</time>
   <energy>
    <i name="e_fr_energy">    -72.63202923 </i>
    <i name="e_wo_entrp">    -72.63202923 </i>
    <i name="e_0_energy">    -72.63202923 </i>
   </energy>
  </scstep>
  <scstep>
   <time name="diag">    0.05    0.05</time>
   <time name="diis">    0.13    0.13</time>
   <time name="orth">    0.01    0.01</time>
   <time name="total">    0.22    0.22</time>
   <energy>
    <i name="e_fr_energy">    -72.63209137 </i>
    <i name="e_wo_entrp">    -72.63209137 </i>
    <i name="e_0_energy">    -72.63209137 </i>
   </energy>
  </scstep>
  <scstep>
   <time name="diag">    0.05    0.05</time>
   <time name="diis">    0.11    0.11</time>
   <time name="orth">    0.01    0.01</time>
   <time name="total">    0.20    0.20</time>
   <energy>
    <i name="e_fr_energy">    -72.63211222 </i>
    <i name="e_wo_entrp">    -72.63211222 </i>
    <i name="e_0_energy">    -72.63211222 </i>
   </energy>
  </scstep>
  <scstep>
   <time name="diag">    0.05    0.05</time>
   <time name="diis">    0.08    0.08</time>
   <time name="orth">    0.01    0.01</time>
   <time name="total">    0.15    0.15</time>
   <energy>
    <i name="alphaZ">     59.22973986 </i>
    <i name="ewald">  -2413.39894510 </i>
    <i name="hartreedc">   -876.81421650 </i>
    <i name="XCdc">    184.80240212 </i>
    <i name="pawpsdc">   7467.64042695 </i>
    <i name="pawaedc">  -7517.50881811 </i>
    <i name="eentropy">      0.00000000 </i>
    <i name="bandstr">   -745.67053051 </i>
    <i name="atom">   3769.08782378 </i>
    <i name="e_fr_energy">    -72.63211752 </i>
    <i name="e_wo_entrp">    -72.63211752 </i>
    <i name="e_0_energy">    -72.63211752 </i>
   </energy>
  </scstep>
  <structure>
   <crystal>
    <varray name="basis" >
     <v>       8.03559963       0.00000000       0.00000000 </v>
     <v>       0.00000000       5.59010652       0.00000000 </v>
     <v>       0.00000000       0.00000000       7.41675610 </v>
    </varray>
    <i name="volume">    333.15962993 </i>
    <varray name="rec_basis" >
     <v>       0.12444622       0.00000000       0.00000000 </v>
     <v>       0.00000000       0.17888747       0.00000000 </v>
     <v>       0.00000000       0.00000000       0.13482983 </v>
    </varray>
   </crystal>
   <varray name="positions" >
    <v>       0.00000000       0.89251007       0.41927349 </v>
    <v>       0.50000000       0.10748993       0.91927349 </v>
    <v>       0.21343274       0.65791470       0.41531273 </v>
    <v>       0.28656726       0.34208530       0.91531273 </v>
    <v>       0.71343274       0.34208530       0.91531273 </v>
    <v>       0.78656726       0.65791470       0.41531273 </v>
    <v>       0.00000000       0.05449946       0.18239926 </v>
    <v>       0.50000000       0.94550054       0.68239926 </v>
    <v>       0.00000000       0.05979164       0.64034280 </v>
    <v>       0.50000000       0.94020836       0.14034280 </v>
    <v>       0.00000000       0.53143096       0.62290695 </v>
    <v>       0.50000000       0.46856904       0.12290695 </v>
    <v>       0.35579207       0.59295036       0.68349332 </v>
    <v>       0.14420793       0.40704964       0.18349332 </v>
    <v>       0.85579207       0.40704964       0.18349332 </v>
    <v>       0.64420793       0.59295036       0.68349332 </v>
   </varray>
  </structure>
  <varray name="forces" >
   <v>       0.00000000      -1.28068633      -1.20374545 </v>
   <v>       0.00000000       1.28068633      -1.20374545 </v>
   <v>      -0.75753735       0.02279558      -0.07747393 </v>
   <v>       0.75753735      -0.02279558      -0.07747393 </v>
   <v>      -0.75753735      -0.02279558      -0.07747393 </v>
   <v>       0.75753735       0.02279558      -0.07747393 </v>
   <v>       0.00000000      -0.13589423      -0.71266429 </v>
   <v>       0.00000000       0.13589423      -0.71266429 </v>
   <v>       0.00000000       0.93463713       1.75354758 </v>
   <v>       0.00000000      -0.93463713       1.75354758 </v>
   <v>       0.00000000      -0.71247754       0.10647733 </v>
   <v>       0.00000000       0.71247754       0.10647733 </v>
   <v>      -0.86122284       0.19257778       0.10566635 </v>
   <v>       0.86122284      -0.19257778       0.10566635 </v>
   <v>      -0.86122284      -0.19257778       0.10566635 </v>
   <v>       0.86122284       0.19257778       0.10566635 </v>
  </varray>
  <varray name="stress" >
   <v>     -11.90970995       0.00000000       0.00000000 </v>
   <v>       0.00000000      -8.14760928       0.00000000 </v>
   <v>       0.00000000       0.00000000      44.05177614 </v>
  </varray>
  <energy>
   <i name="e_fr_energy">    -72.63211752 </i>
   <i name="e_wo_entrp">    -72.63211752 </i>
   <i name="e_0_energy">      0.00000000 </i>
  </energy>
  <time name="totalsc">    3.18    3.20</time>
 </calculation>
 <calculation>
  <scstep>
   <time name="dav">    0.20    0.20</time>
   <time name="total">    0.23    0.23</time>
   <energy>
    <i name="alphaZ">     59.31724694 </i>
    <i name="ewald">  -2414.17357815 </i>
    <i name="hartreedc">   -877.82787143 </i>
    <i name="XCdc">    184.90438420 </i>
    <i name="pawpsdc">   7467.70527376 </i>
    <i name="pawaedc">  -7517.57312653 </i>
    <i name="eentropy">      0.00000000 </i>
    <i name="bandstr">   -744.07634465 </i>
    <i name="atom">   3769.08782378 </i>
    <i name="e_fr_energy">    -72.63619209 </i>
    <i name="e_wo_entrp">    -72.63619209 </i>
    <i name="e_0_energy">    -72.63619209 </i>
   </energy>
  </scstep>
  <scstep>
   <time name="diag">    0.05    0.05</time>
   <time name="diis">    0.12    0.12</time>
   <time name="orth">    0.01    0.01</time>
   <time name="total">    0.21    0.21</time>
   <energy>
    <i name="e_fr_energy">    -72.63905756 </i>
    <i name="e_wo_entrp">    -72.63905756 </i>
    <i name="e_0_energy">    -72.63905756 </i>
   </energy>
  </scstep>
  <scstep>
   <time name="diag">    0.05    0.05</time>
   <time name="diis">    0.15    0.15</time>
   <time name="orth">    0.01    0.01</time>
   <time name="total">    0.24    0.24</time>
   <energy>
    <i name="e_fr_energy">    -72.63842165 </i>
    <i name="e_wo_entrp">    -72.63842165 </i>
    <i name="e_0_energy">    -72.63842165 </i>
   </energy>
  </scstep>
  <scstep>
   <time name="diag">    0.05    0.05</time>
   <time name="diis">    0.13    0.13</time>
   <time name="orth">    0.01    0.01</time>
   <time name="total">    0.22    0.22</time>
   <energy>
    <i name="e_fr_energy">    -72.63830842 </i>
    <i name="e_wo_entrp">    -72.63830842 </i>
    <i name="e_0_energy">    -72.63830842 </i>
   </energy>
  </scstep>
  <scstep>
   <time name="diag">    0.05    0.05</time>
   <time name="diis">    0.15    0.15</time>
   <time name="orth">    0.01    0.01</time>
   <time name="total">    0.24    0.24</time>
   <energy>
    <i name="e_fr_energy">    -72.63833649 </i>
    <i name="e_wo_entrp">    -72.63833649 </i>
    <i name="e_0_energy">    -72.63833649 </i>
   </energy>
  </scstep>
  <scstep>
   <time name="diag">    0.06    0.06</time>
   <time name="diis">    0.06    0.06</time>
   <time name="orth">    0.01    0.01</time>
   <time name="total">    0.14    0.14</time>
   <energy>
    <i name="alphaZ">     59.31724694 </i>
    <i name="ewald">  -2414.17357815 </i>
    <i name="hartreedc">   -876.63576218 </i>
    <i name="XCdc">    184.82441486 </i>
    <i name="pawpsdc">   7453.73657528 </i>
    <i name="pawaedc">  -7503.58476903 </i>
    <i name="eentropy">      0.00000000 </i>
    <i name="bandstr">   -745.21028420 </i>
    <i name="atom">   3769.08782378 </i>
    <i name="e_fr_energy">    -72.63833270 </i>
    <i name="e_wo_entrp">    -72.63833270 </i>
    <i name="e_0_energy">    -72.63833270 </i>
   </energy>
  </scstep>
  <structure>
   <crystal>
    <varray name="basis" >
     <v>       8.02548176       0.00000000       0.00000000 </v>
     <v>       0.00000000       5.59140021       0.00000000 </v>
     <v>       0.00000000       0.00000000       7.41343561 </v>
    </varray>
    <i name="volume">    332.66814004 </i>
    <varray name="rec_basis" >
     <v>       0.12460311       0.00000000       0.00000000 </v>
     <v>       0.00000000       0.17884608       0.00000000 </v>
     <v>       0.00000000       0.00000000       0.13489023 </v>
    </varray>
   </crystal>
   <varray name="positions" >
    <v>       0.00000000       0.89092966       0.41874279 </v>
    <v>       0.50000000       0.10907034       0.91874279 </v>
    <v>       0.21351123       0.65829770       0.41568886 </v>
    <v>       0.28648877       0.34170230       0.91568886 </v>
    <v>       0.71351123       0.34170230       0.91568886 </v>
    <v>       0.78648877       0.65829770       0.41568886 </v>
    <v>       0.00000000       0.05564353       0.18256431 </v>
    <v>       0.50000000       0.94435647       0.68256431 </v>
    <v>       0.00000000       0.06020457       0.64059371 </v>
    <v>       0.50000000       0.93979543       0.14059371 </v>
    <v>       0.00000000       0.53198672       0.62266596 </v>
    <v>       0.50000000       0.46801328       0.12266596 </v>
    <v>       0.35646263       0.59319874       0.68329505 </v>
    <v>       0.14353737       0.40680126       0.18329505 </v>
    <v>       0.85646263       0.40680126       0.18329505 </v>
    <v>       0.64353737       0.59319874       0.68329505 </v>
   </varray>
  </structure>
  <varray name="forces" >
   <v>       0.00000000      -0.99828807      -0.94623842 </v>
   <v>       0.00000000       0.99828807      -0.94623842 </v>
   <v>      -0.74209157      -0.02197306      -0.13690930 </v>
   <v>       0.74209157       0.02197306      -0.13690930 </v>
   <v>      -0.74209157       0.02197306      -0.13690930 </v>
   <v>       0.74209157      -0.02197306      -0.13690930 </v>
   <v>       0.00000000      -0.24645809      -0.70658855 </v>
   <v>       0.00000000       0.24645809      -0.70658855 </v>
   <v>       0.00000000       0.78225909       1.52112067 </v>
   <v>       0.00000000      -0.78225909       1.52112067 </v>
   <v>       0.00000000      -0.72909971       0.13218616 </v>
   <v>       0.00000000       0.72909971       0.13218616 </v>
   <v>      -0.90864586       0.16108980       0.13666937 </v>
   <v>       0.90864586      -0.16108980       0.13666937 </v>
   <v>      -0.90864586      -0.16108980       0.13666937 </v>
   <v>       0.90864586       0.16108980       0.13666937 </v>
  </varray>
  <varray name="stress" >
   <v>      -9.78101533       0.00000000       0.00000000 </v>
   <v>       0.00000000      -8.44713061       0.00000000 </v>
   <v>       0.00000000       0.00000000      41.13198060 </v>
  </varray>
  <energy>
   <i name="e_fr_energy">    -72.63833270 </i>
   <i name="e_wo_entrp">    -72.63833270 </i>
   <i name="e_0_energy">      0.00000000 </i>
  </energy>
  <time name="totalsc">    1.50    1.50</time>
 </calculation>
 <calculation>
  <scstep>
   <time name="dav">    0.18    0.18</time>
   <time name="total">    0.21    0.21</time>
   <energy>
    <i name="alphaZ">     57.98458982 </i>
    <i name="ewald">  -2414.95254635 </i>
    <i name="hartreedc">   -857.33152395 </i>
    <i name="XCdc">    183.00181486 </i>
    <i name="pawpsdc">   7453.32354268 </i>
    <i name="pawaedc">  -7503.17173433 </i>
    <i name="eentropy">      0.00000000 </i>
    <i name="bandstr">   -760.54561698 </i>
    <i name="atom">   3769.08782378 </i>
    <i name="e_fr_energy">    -72.60365048 </i>
    <i name="e_wo_entrp">    -72.60365048 </i>
    <i name="e_0_energy">    -72.60365048 </i>
   </energy>
  </scstep>
  <scstep>
   <time name="diag">    0.05    0.05</time>
   <time name="diis">    0.12    0.12</time>
   <time name="orth">    0.01    0.01</time>
   <time name="total">    0.21    0.21</time>
   <energy>
    <i name="e_fr_energy">    -73.11211853 </i>
    <i name="e_wo_entrp">    -73.11211853 </i>
    <i name="e_0_energy">    -73.11211853 </i>
   </energy>
  </scstep>
  <scstep>
   <time name="diag">    0.05    0.05</time>
   <time name="diis">    0.16    0.16</time>
   <time name="orth">    0.01    0.01</time>
   <time name="total">    0.25    0.25</time>
   <energy>
    <i name="e_fr_energy">    -73.14760597 </i>
    <i name="e_wo_entrp">    -73.14760597 </i>
    <i name="e_0_energy">    -73.14760597 </i>
   </energy>
  </scstep>
  <scstep>
   <time name="diag">    0.05    0.05</time>
   <time name="diis">    0.15    0.15</time>
   <time name="orth">    0.01    0.01</time>
   <time name="total">    0.24    0.24</time>
   <energy>
    <i name="e_fr_energy">    -73.13693838 </i>
    <i name="e_wo_entrp">    -73.13693838 </i>
    <i name="e_0_energy">    -73.13693838 </i>
   </energy>
  </scstep>
  <scstep>
   <time name="diag">    0.05    0.05</time>
   <time name="diis">    0.17    0.17</time>
   <time name="orth">    0.01    0.01</time>
   <time name="total">    0.26    0.26</time>
   <energy>
    <i name="e_fr_energy">    -73.14324812 </i>
    <i name="e_wo_entrp">    -73.14324812 </i>
    <i name="e_0_energy">    -73.14324812 </i>
   </energy>
  </scstep>
  <scstep>
   <time name="diag">    0.05    0.05</time>
   <time name="diis">    0.16    0.16</time>
   <time name="orth">    0.01    0.01</time>
   <time name="total">    0.25    0.25</time>
   <energy>
    <i name="e_fr_energy">    -73.14564366 </i>
    <i name="e_wo_entrp">    -73.14564366 </i>
    <i name="e_0_energy">    -73.14564366 </i>
   </energy>
  </scstep>
  <scstep>
   <time name="diag">    0.05    0.05</time>
   <time name="diis">    0.16    0.16</time>
   <time name="orth">    0.01    0.01</time>
   <time name="total">    0.25    0.25</time>
   <energy>
    <i name="e_fr_energy">    -73.14663922 </i>
    <i name="e_wo_entrp">    -73.14663922 </i>
    <i name="e_0_energy">    -73.14663922 </i>
   </energy>
  </scstep>
  <scstep>
   <time name="diag">    0.05    0.05</time>
   <time name="diis">    0.16    0.16</time>
   <time name="orth">    0.01    0.01</time>
   <time name="total">    0.25    0.25</time>
   <energy>
    <i name="e_fr_energy">    -73.14721110 </i>
    <i name="e_wo_entrp">    -73.14721110 </i>
    <i name="e_0_energy">    -73.14721110 </i>
   </energy>
  </scstep>
  <scstep>
   <time name="diag">    0.05    0.05</time>
   <time name="diis">    0.15    0.15</time>
   <time name="orth">    0.01    0.01</time>
   <time name="total">    0.24    0.24</time>
   <energy>
    <i name="e_fr_energy">    -73.14747347 </i>
    <i name="e_wo_entrp">    -73.14747347 </i>
    <i name="e_0_energy">    -73.14747347 </i>
   </energy>
  </scstep>
  <scstep>
   <time name="diag">    0.05    0.05</time>
   <time name="diis">    0.14    0.14</time>
   <time name="orth">    0.01    0.01</time>
   <time name="total">    0.23    0.23</time>
   <energy>
    <i name="e_fr_energy">    -73.14757932 </i>
    <i name="e_wo_entrp">    -73.14757932 </i>
    <i name="e_0_energy">    -73.14757932 </i>
   </energy>
  </scstep>
  <scstep>
   <time name="diag">    0.05    0.05</time>
   <time name="diis">    0.12    0.12</time>
   <time name="orth">    0.01    0.01</time>
   <time name="total">    0.21    0.21</time>
   <energy>
    <i name="e_fr_energy">    -73.14761823 </i>
    <i name="e_wo_entrp">    -73.14761823 </i>
    <i name="e_0_energy">    -73.14761823 </i>
   </energy>
  </scstep>
  <scstep>
   <time name="diag">    0.05    0.05</time>
   <time name="diis">    0.08    0.08</time>
   <time name="orth">    0.01    0.01</time>
   <time name="total">    0.14    0.15</time>
   <energy>
    <i name="alphaZ">     57.98458982 </i>
    <i name="ewald">  -2414.95254635 </i>
    <i name="hartreedc">   -868.19096533 </i>
    <i name="XCdc">    183.75855079 </i>
    <i name="pawpsdc">   6888.19257072 </i>
    <i name="pawaedc">  -6938.01466532 </i>
    <i name="eentropy">      0.00000000 </i>
    <i name="bandstr">   -751.01297988 </i>
    <i name="atom">   3769.08782378 </i>
    <i name="e_fr_energy">    -73.14762177 </i>
    <i name="e_wo_entrp">    -73.14762177 </i>
    <i name="e_0_energy">    -73.14762177 </i>
   </energy>
  </scstep>
  <structure>
   <crystal>
    <varray name="basis" >
     <v>       8.03838441       0.00000000       0.00000000 </v>
     <v>       0.00000000       5.55451409       0.00000000 </v>
     <v>       0.00000000       0.00000000       7.62192662 </v>
    </varray>
    <i name="volume">    340.31383638 </i>
    <varray name="rec_basis" >
     <v>       0.12440311       0.00000000       0.00000000 </v>
     <v>       0.00000000       0.18003375       0.00000000 </v>
     <v>       0.00000000       0.00000000       0.13120042 </v>
    </varray>
   </crystal>
   <varray name="positions" >
    <v>       0.00000000       0.89183041       0.41582186 </v>
    <v>       0.50000000       0.10816959       0.91582186 </v>
    <v>       0.20863665       0.65583016       0.41256791 </v>
    <v>       0.29136335       0.34416984       0.91256791 </v>
    <v>       0.70863665       0.34416984       0.91256791 </v>
    <v>       0.79136335       0.65583016       0.41256791 </v>
    <v>       0.00000000       0.04673157       0.17703879 </v>
    <v>       0.50000000       0.95326843       0.67703879 </v>
    <v>       0.00000000       0.06441337       0.64887708 </v>
    <v>       0.50000000       0.93558663       0.14887708 </v>
    <v>       0.00000000       0.52246374       0.62495146 </v>
    <v>       0.50000000       0.47753626       0.12495146 </v>
    <v>       0.34706882       0.59309297       0.68535480 </v>
    <v>       0.15293118       0.40690703       0.18535480 </v>
    <v>       0.84706882       0.40690703       0.18535480 </v>
    <v>       0.65293118       0.59309297       0.68535480 </v>
   </varray>
  </structure>
  <varray name="forces" >
   <v>      -0.00000000      -0.12319434       0.36919285 </v>
   <v>      -0.00000000       0.12319434       0.36919285 </v>
   <v>      -0.41412504       0.12847988       0.35015065 </v>
   <v>       0.41412504      -0.12847988       0.35015065 </v>
   <v>      -0.41412504      -0.12847988       0.35015065 </v>
   <v>       0.41412504       0.12847988       0.35015065 </v>
   <v>      -0.00000000       0.14697579       0.09382241 </v>
   <v>      -0.00000000      -0.14697579       0.09382241 </v>
   <v>      -0.00000000      -0.41813039      -0.80806167 </v>
   <v>      -0.00000000       0.41813039      -0.80806167 </v>
   <v>      -0.00000000      -0.59823334      -0.06972107 </v>
   <v>      -0.00000000       0.59823334      -0.06972107 </v>
   <v>      -0.51500934       0.43513479      -0.14276691 </v>
   <v>       0.51500934      -0.43513479      -0.14276691 </v>
   <v>      -0.51500934      -0.43513479      -0.14276691 </v>
   <v>       0.51500934       0.43513479      -0.14276691 </v>
  </varray>
  <varray name="stress" >
   <v>      -7.50492736       0.00000000       0.00000000 </v>
   <v>       0.00000000     -30.44535089       0.00000000 </v>
   <v>       0.00000000       0.00000000     -18.98861195 </v>
  </varray>
  <energy>
   <i name="e_fr_energy">    -73.14762177 </i>
   <i name="e_wo_entrp">    -73.14762177 </i>
   <i name="e_0_energy">      0.00000000 </i>
  </energy>
  <time name="totalsc">    2.94    2.95</time>
 </calculation>
 <calculation>
  <scstep>
   <time name="dav">    0.22    0.22</time>
   <time name="total">    0.25    0.25</time>
   <energy>
    <i name="alphaZ">     57.98402586 </i>
    <i name="ewald">  -2414.95174532 </i>
    <i name="hartreedc">   -868.18320938 </i>
    <i name="XCdc">    183.75772865 </i>
    <i name="pawpsdc">   6888.25396849 </i>
    <i name="pawaedc">  -6938.07616964 </i>
    <i name="eentropy">      0.00000000 </i>
    <i name="bandstr">   -751.02009639 </i>
    <i name="atom">   3769.08782378 </i>
    <i name="e_fr_energy">    -73.14767394 </i>
    <i name="e_wo_entrp">    -73.14767394 </i>
    <i name="e_0_energy">    -73.14767394 </i>
   </energy>
  </scstep>
  <scstep>
   <time name="diag">    0.05    0.05</time>
   <time name="diis">    0.05    0.05</time>
   <time name="orth">    0.01    0.01</time>
   <time name="total">    0.12    0.12</time>
   <energy>
    <i name="alphaZ">     57.98402586 </i>
    <i name="ewald">  -2414.95174532 </i>
    <i name="hartreedc">   -868.18664129 </i>
    <i name="XCdc">    183.75784897 </i>
    <i name="pawpsdc">   6887.99075671 </i>
    <i name="pawaedc">  -6937.81414872 </i>
    <i name="eentropy">      0.00000000 </i>
    <i name="bandstr">   -751.01559435 </i>
    <i name="atom">   3769.08782378 </i>
    <i name="e_fr_energy">    -73.14767435 </i>
    <i name="e_wo_entrp">    -73.14767435 </i>
    <i name="e_0_energy">    -73.14767435 </i>
   </energy>
  </scstep>
  <structure>
   <crystal>
    <varray name="basis" >
     <v>       8.03839003       0.00000000       0.00000000 </v>
     <v>       0.00000000       5.55449802       0.00000000 </v>
     <v>       0.00000000       0.00000000       7.62201748 </v>
    </varray>
    <i name="volume">    340.31714631 </i>
    <varray name="rec_basis" >
     <v>       0.12440302       0.00000000       0.00000000 </v>
     <v>       0.00000000       0.18003427       0.00000000 </v>
     <v>       0.00000000       0.00000000       0.13119886 </v>
    </varray>
   </crystal>
   <varray name="positions" >
    <v>       0.00000000       0.89183080       0.41582062 </v>
    <v>       0.50000000       0.10816920       0.91582062 </v>
    <v>       0.20863453       0.65582908       0.41256659 </v>
    <v>       0.29136547       0.34417092       0.91256659 </v>
    <v>       0.70863453       0.34417092       0.91256659 </v>
    <v>       0.79136547       0.65582908       0.41256659 </v>
    <v>       0.00000000       0.04672766       0.17703645 </v>
    <v>       0.50000000       0.95327234       0.67703645 </v>
    <v>       0.00000000       0.06441522       0.64888059 </v>
    <v>       0.50000000       0.93558478       0.14888059 </v>
    <v>       0.00000000       0.52245957       0.62495243 </v>
    <v>       0.50000000       0.47754043       0.12495243 </v>
    <v>       0.34706473       0.59309292       0.68535567 </v>
    <v>       0.15293527       0.40690708       0.18535567 </v>
    <v>       0.84706473       0.40690708       0.18535567 </v>
    <v>       0.65293527       0.59309292       0.68535567 </v>
   </varray>
  </structure>
  <varray name="forces" >
   <v>       0.00000000      -0.12547911       0.36946926 </v>
   <v>       0.00000000       0.12547911       0.36946926 </v>
   <v>      -0.41716480       0.12819699       0.34970170 </v>
   <v>       0.41716480      -0.12819699       0.34970170 </v>
   <v>      -0.41716480      -0.12819699       0.34970170 </v>
   <v>       0.41716480       0.12819699       0.34970170 </v>
   <v>       0.00000000       0.14533414       0.09190058 </v>
   <v>       0.00000000      -0.14533414       0.09190058 </v>
   <v>       0.00000000      -0.41822281      -0.80578015 </v>
   <v>       0.00000000       0.41822281      -0.80578015 </v>
   <v>       0.00000000      -0.59696820      -0.07094293 </v>
   <v>       0.00000000       0.59696820      -0.07094293 </v>
   <v>      -0.51436218       0.43528392      -0.14202508 </v>
   <v>       0.51436218      -0.43528392      -0.14202508 </v>
   <v>      -0.51436218      -0.43528392      -0.14202508 </v>
   <v>       0.51436218       0.43528392      -0.14202508 </v>
  </varray>
  <varray name="stress" >
   <v>      -7.49376430       0.00000000       0.00000000 </v>
   <v>       0.00000000     -30.42423418       0.00000000 </v>
   <v>       0.00000000       0.00000000     -18.87578624 </v>
  </varray>
  <energy>
   <i name="e_fr_energy">    -73.14767435 </i>
   <i name="e_wo_entrp">    -73.14767435 </i>
   <i name="e_0_energy">      0.00000000 </i>
  </energy>
  <time name="totalsc">    0.59    0.59</time>
 </calculation>
 <calculation>
  <scstep>
   <time name="dav">    0.18    0.18</time>
   <time name="total">    0.21    0.21</time>
   <energy>
    <i name="alphaZ">     59.46811293 </i>
    <i name="ewald">  -2422.71521007 </i>
    <i name="hartreedc">   -886.92758775 </i>
    <i name="XCdc">    185.69627145 </i>
    <i name="pawpsdc">   6887.91676425 </i>
    <i name="pawaedc">  -6937.74115748 </i>
    <i name="eentropy">      0.00000000 </i>
    <i name="bandstr">   -728.09475633 </i>
    <i name="atom">   3769.08782378 </i>
    <i name="e_fr_energy">    -73.30973922 </i>
    <i name="e_wo_entrp">    -73.30973922 </i>
    <i name="e_0_energy">    -73.30973922 </i>
   </energy>
  </scstep>
  <scstep>
   <time name="diag">    0.05    0.05</time>
   <time name="diis">    0.13    0.13</time>
   <time name="orth">    0.01    0.01</time>
   <time name="total">    0.22    0.22</time>
   <energy>
    <i name="e_fr_energy">    -73.43399654 </i>
    <i name="e_wo_entrp">    -73.43399654 </i>
    <i name="e_0_energy">    -73.43399654 </i>
   </energy>
  </scstep>
  <scstep>
   <time name="diag">    0.06    0.06</time>
   <time name="diis">    0.15    0.15</time>
   <time name="orth">    0.01    0.01</time>
   <time name="total">    0.25    0.25</time>
   <energy>
    <i name="e_fr_energy">    -73.44453906 </i>
    <i name="e_wo_entrp">    -73.44453906 </i>
    <i name="e_0_energy">    -73.44453906 </i>
   </energy>
  </scstep>
  <scstep>
   <time name="diag">    0.05    0.05</time>
   <time name="diis">    0.16    0.16</time>
   <time name="orth">    0.01    0.01</time>
   <time name="total">    0.25    0.25</time>
   <energy>
    <i name="e_fr_energy">    -73.45128727 </i>
    <i name="e_wo_entrp">    -73.45128727 </i>
    <i name="e_0_energy">    -73.45128727 </i>
   </energy>
  </scstep>
  <scstep>
   <time name="diag">    0.05    0.05</time>
   <time name="diis">    0.16    0.16</time>
   <time name="orth">    0.01    0.01</time>
   <time name="total">    0.25    0.25</time>
   <energy>
    <i name="e_fr_energy">    -73.45528028 </i>
    <i name="e_wo_entrp">    -73.45528028 </i>
    <i name="e_0_energy">    -73.45528028 </i>
   </energy>
  </scstep>
  <scstep>
   <time name="diag">    0.05    0.05</time>
   <time name="diis">    0.17    0.17</time>
   <time name="orth">    0.01    0.01</time>
   <time name="total">    0.26    0.26</time>
   <energy>
    <i name="e_fr_energy">    -73.45719418 </i>
    <i name="e_wo_entrp">    -73.45719418 </i>
    <i name="e_0_energy">    -73.45719418 </i>
   </energy>
  </scstep>
  <scstep>
   <time name="diag">    0.05    0.05</time>
   <time name="diis">    0.16    0.16</time>
   <time name="orth">    0.01    0.01</time>
   <time name="total">    0.25    0.25</time>
   <energy>
    <i name="e_fr_energy">    -73.45793440 </i>
    <i name="e_wo_entrp">    -73.45793440 </i>
    <i name="e_0_energy">    -73.45793440 </i>
   </energy>
  </scstep>
  <scstep>
   <time name="diag">    0.05    0.05</time>
   <time name="diis">    0.16    0.16</time>
   <time name="orth">    0.01    0.01</time>
   <time name="total">    0.25    0.25</time>
   <energy>
    <i name="e_fr_energy">    -73.45824239 </i>
    <i name="e_wo_entrp">    -73.45824239 </i>
    <i name="e_0_energy">    -73.45824239 </i>
   </energy>
  </scstep>
  <scstep>
   <time name="diag">    0.05    0.05</time>
   <time name="diis">    0.15    0.15</time>
   <time name="orth">    0.01    0.01</time>
   <time name="total">    0.24    0.24</time>
   <energy>
    <i name="e_fr_energy">    -73.45839305 </i>
    <i name="e_wo_entrp">    -73.45839305 </i>
    <i name="e_0_energy">    -73.45839305 </i>
   </energy>
  </scstep>
  <scstep>
   <time name="diag">    0.05    0.05</time>
   <time name="diis">    0.13    0.13</time>
   <time name="orth">    0.01    0.01</time>
   <time name="total">    0.22    0.22</time>
   <energy>
    <i name="e_fr_energy">    -73.45844970 </i>
    <i name="e_wo_entrp">    -73.45844970 </i>
    <i name="e_0_energy">    -73.45844970 </i>
   </energy>
  </scstep>
  <scstep>
   <time name="diag">    0.05    0.05</time>
   <time name="diis">    0.10    0.10</time>
   <time name="orth">    0.01    0.01</time>
   <time name="total">    0.17    0.17</time>
   <energy>
    <i name="alphaZ">     59.46811293 </i>
    <i name="ewald">  -2422.71521007 </i>
    <i name="hartreedc">   -873.02068669 </i>
    <i name="XCdc">    184.67910775 </i>
    <i name="pawpsdc">   7297.72466391 </i>
    <i name="pawaedc">  -7347.56391664 </i>
    <i name="eentropy">      0.00000000 </i>
    <i name="bandstr">   -741.11836132 </i>
    <i name="atom">   3769.08782378 </i>
    <i name="e_fr_energy">    -73.45846635 </i>
    <i name="e_wo_entrp">    -73.45846635 </i>
    <i name="e_0_energy">    -73.45846635 </i>
   </energy>
  </scstep>
  <structure>
   <crystal>
    <varray name="basis" >
     <v>       8.00637938       0.00000000       0.00000000 </v>
     <v>       0.00000000       5.43027209       0.00000000 </v>
     <v>       0.00000000       0.00000000       7.63220950 </v>
    </varray>
    <i name="volume">    331.82418680 </i>
    <varray name="rec_basis" >
     <v>       0.12490040       0.00000000       0.00000000 </v>
     <v>       0.00000000       0.18415283       0.00000000 </v>
     <v>       0.00000000       0.00000000       0.13102366 </v>
    </varray>
   </crystal>
   <varray name="positions" >
    <v>       0.00000000       0.89118231       0.41678933 </v>
    <v>       0.50000000       0.10881769       0.91678933 </v>
    <v>       0.20386302       0.65575612       0.41331984 </v>
    <v>       0.29613698       0.34424388       0.91331984 </v>
    <v>       0.70386302       0.34424388       0.91331984 </v>
    <v>       0.79613698       0.65575612       0.41331984 </v>
    <v>       0.00000000       0.04373843       0.17507329 </v>
    <v>       0.50000000       0.95626157       0.67507329 </v>
    <v>       0.00000000       0.06282734       0.64764654 </v>
    <v>       0.50000000       0.93717266       0.14764654 </v>
    <v>       0.00000000       0.51281062       0.62555853 </v>
    <v>       0.50000000       0.48718938       0.12555853 </v>
    <v>       0.33958634       0.59677756       0.68541361 </v>
    <v>       0.16041366       0.40322244       0.18541361 </v>
    <v>       0.83958634       0.40322244       0.18541361 </v>
    <v>       0.66041366       0.59677756       0.68541361 </v>
   </varray>
  </structure>
  <varray name="forces" >
   <v>       0.00000000       0.03351360      -0.22801077 </v>
   <v>       0.00000000      -0.03351360      -0.22801077 </v>
   <v>       0.24022774      -0.18047398       0.41236844 </v>
   <v>      -0.24022774       0.18047398       0.41236844 </v>
   <v>       0.24022774       0.18047398       0.41236844 </v>
   <v>      -0.24022774      -0.18047398       0.41236844 </v>
   <v>       0.00000000       0.25570294       0.17522254 </v>
   <v>       0.00000000      -0.25570294       0.17522254 </v>
   <v>       0.00000000      -0.12055434      -0.28204675 </v>
   <v>       0.00000000       0.12055434      -0.28204675 </v>
   <v>       0.00000000      -0.52078744      -0.07820246 </v>
   <v>       0.00000000       0.52078744      -0.07820246 </v>
   <v>      -0.28483019       0.46849837      -0.20584972 </v>
   <v>       0.28483019      -0.46849837      -0.20584972 </v>
   <v>      -0.28483019      -0.46849837      -0.20584972 </v>
   <v>       0.28483019       0.46849837      -0.20584972 </v>
  </varray>
  <varray name="stress" >
   <v>      15.39064590       0.00000000       0.00000000 </v>
   <v>       0.00000000      -9.48810018       0.00000000 </v>
   <v>       0.00000000       0.00000000      -7.01805468 </v>
  </varray>
  <energy>
   <i name="e_fr_energy">    -73.45846635 </i>
   <i name="e_wo_entrp">    -73.45846635 </i>
   <i name="e_0_energy">      0.00000000 </i>
  </energy>
  <time name="totalsc">    2.80    2.80</time>
 </calculation>
 <calculation>
  <scstep>
   <time name="dav">    0.19    0.19</time>
   <time name="total">    0.22    0.22</time>
   <energy>
    <i name="alphaZ">     60.17075577 </i>
    <i name="ewald">  -2425.73994399 </i>
    <i name="hartreedc">   -882.15932007 </i>
    <i name="XCdc">    185.58762094 </i>
    <i name="pawpsdc">   7297.68998517 </i>
    <i name="pawaedc">  -7347.53005130 </i>
    <i name="eentropy">      0.00000000 </i>
    <i name="bandstr">   -730.58050399 </i>
    <i name="atom">   3769.08782378 </i>
    <i name="e_fr_energy">    -73.47363369 </i>
    <i name="e_wo_entrp">    -73.47363369 </i>
    <i name="e_0_energy">    -73.47363369 </i>
   </energy>
  </scstep>
  <scstep>
   <time name="diag">    0.05    0.05</time>
   <time name="diis">    0.13    0.13</time>
   <time name="orth">    0.01    0.01</time>
   <time name="total">    0.21    0.21</time>
   <energy>
    <i name="e_fr_energy">    -73.49356375 </i>
    <i name="e_wo_entrp">    -73.49356375 </i>
    <i name="e_0_energy">    -73.49356375 </i>
   </energy>
  </scstep>
  <scstep>
   <time name="diag">    0.06    0.06</time>
   <time name="diis">    0.15    0.15</time>
   <time name="orth">    0.01    0.01</time>
   <time name="total">    0.25    0.25</time>
   <energy>
    <i name="e_fr_energy">    -73.49070950 </i>
    <i name="e_wo_entrp">    -73.49070950 </i>
    <i name="e_0_energy">    -73.49070950 </i>
   </energy>
  </scstep>
  <scstep>
   <time name="diag">    0.05    0.05</time>
   <time name="diis">    0.16    0.16</time>
   <time name="orth">    0.01    0.01</time>
   <time name="total">    0.25    0.25</time>
   <energy>
    <i name="e_fr_energy">    -73.49120740 </i>
    <i name="e_wo_entrp">    -73.49120740 </i>
    <i name="e_0_energy">    -73.49120740 </i>
   </energy>
  </scstep>
  <scstep>
   <time name="diag">    0.06    0.06</time>
   <time name="diis">    0.17    0.17</time>
   <time name="orth">    0.01    0.01</time>
   <time name="total">    0.26    0.26</time>
   <energy>
    <i name="e_fr_energy">    -73.49215396 </i>
    <i name="e_wo_entrp">    -73.49215396 </i>
    <i name="e_0_energy">    -73.49215396 </i>
   </energy>
  </scstep>
  <scstep>
   <time name="diag">    0.05    0.05</time>
   <time name="diis">    0.17    0.17</time>
   <time name="orth">    0.01    0.01</time>
   <time name="total">    0.25    0.25</time>
   <energy>
    <i name="e_fr_energy">    -73.49260218 </i>
    <i name="e_wo_entrp">    -73.49260218 </i>
    <i name="e_0_energy">    -73.49260218 </i>
   </energy>
  </scstep>
  <scstep>
   <time name="diag">    0.05    0.05</time>
   <time name="diis">    0.15    0.15</time>
   <time name="orth">    0.01    0.01</time>
   <time name="total">    0.24    0.24</time>
   <energy>
    <i name="e_fr_energy">    -73.49278909 </i>
    <i name="e_wo_entrp">    -73.49278909 </i>
    <i name="e_0_energy">    -73.49278909 </i>
   </energy>
  </scstep>
  <scstep>
   <time name="diag">    0.05    0.05</time>
   <time name="diis">    0.15    0.15</time>
   <time name="orth">    0.01    0.01</time>
   <time name="total">    0.24    0.24</time>
   <energy>
    <i name="e_fr_energy">    -73.49286542 </i>
    <i name="e_wo_entrp">    -73.49286542 </i>
    <i name="e_0_energy">    -73.49286542 </i>
   </energy>
  </scstep>
  <scstep>
   <time name="diag">    0.05    0.05</time>
   <time name="diis">    0.12    0.12</time>
   <time name="orth">    0.01    0.01</time>
   <time name="total">    0.21    0.21</time>
   <energy>
    <i name="e_fr_energy">    -73.49289374 </i>
    <i name="e_wo_entrp">    -73.49289374 </i>
    <i name="e_0_energy">    -73.49289374 </i>
   </energy>
  </scstep>
  <scstep>
   <time name="diag">    0.05    0.05</time>
   <time name="diis">    0.07    0.07</time>
   <time name="orth">    0.01    0.01</time>
   <time name="total">    0.14    0.14</time>
   <energy>
    <i name="alphaZ">     60.17075577 </i>
    <i name="ewald">  -2425.73994399 </i>
    <i name="hartreedc">   -875.70756619 </i>
    <i name="XCdc">    185.11604504 </i>
    <i name="pawpsdc">   7507.83632003 </i>
    <i name="pawaedc">  -7557.70114466 </i>
    <i name="eentropy">      0.00000000 </i>
    <i name="bandstr">   -736.55518431 </i>
    <i name="atom">   3769.08782378 </i>
    <i name="e_fr_energy">    -73.49289452 </i>
    <i name="e_wo_entrp">    -73.49289452 </i>
    <i name="e_0_energy">    -73.49289452 </i>
   </energy>
  </scstep>
  <structure>
   <crystal>
    <varray name="basis" >
[...]
       <r>   -9.1864    1.0000 </r>
       <r>   -4.9893    1.0000 </r>
       <r>   -4.8767    1.0000 </r>
       <r>   -2.4798    1.0000 </r>
       <r>   -2.3696    1.0000 </r>
       <r>   -2.1782    1.0000 </r>
       <r>   -2.1053    1.0000 </r>
       <r>   -1.8759    1.0000 </r>
       <r>   -1.6981    1.0000 </r>
       <r>   -0.1948    1.0000 </r>
       <r>   -0.0107    1.0000 </r>
       <r>    0.1796    1.0000 </r>
       <r>    0.3938    1.0000 </r>
       <r>    0.5915    1.0000 </r>
       <r>    0.7147    1.0000 </r>
       <r>    0.7584    1.0000 </r>
       <r>    1.0733    1.0000 </r>
       <r>    1.2272    1.0000 </r>
       <r>    1.3194    1.0000 </r>
       <r>    1.7378    1.0000 </r>
       <r>    1.8164    1.0000 </r>
       <r>    1.9995    1.0000 </r>
       <r>    2.0125    1.0000 </r>
       <r>    2.2035    1.0000 </r>
       <r>    2.2940    1.0000 </r>
       <r>    5.6193    0.0000 </r>
       <r>    5.8169    0.0000 </r>
       <r>    6.4258    0.0000 </r>
       <r>    6.5990    0.0000 </r>
       <r>    7.0207    0.0000 </r>
       <r>    7.0868    0.0000 </r>
       <r>    7.3207    0.0000 </r>
       <r>    7.3736    0.0000 </r>
       <r>    8.4783    0.0000 </r>
       <r>    8.8448    0.0000 </r>
      </set>
      <set comment="kpoint 8">
       <r>  -41.3221    1.0000 </r>
       <r>  -41.3221    1.0000 </r>
       <r>  -40.7644    1.0000 </r>
       <r>  -40.7644    1.0000 </r>
       <r>  -40.7618    1.0000 </r>
       <r>  -40.7618    1.0000 </r>
       <r>  -12.4050    1.0000 </r>
       <r>  -12.3925    1.0000 </r>
       <r>   -9.5441    1.0000 </r>
       <r>   -9.5283    1.0000 </r>
       <r>   -9.3774    1.0000 </r>
       <r>   -9.3387    1.0000 </r>
       <r>   -9.2209    1.0000 </r>
       <r>   -9.2035    1.0000 </r>
       <r>   -4.8705    1.0000 </r>
       <r>   -4.8220    1.0000 </r>
       <r>   -2.3958    1.0000 </r>
       <r>   -2.3566    1.0000 </r>
       <r>   -2.2397    1.0000 </r>
       <r>   -2.1886    1.0000 </r>
       <r>   -1.7451    1.0000 </r>
       <r>   -1.7197    1.0000 </r>
       <r>   -0.2466    1.0000 </r>
       <r>   -0.1767    1.0000 </r>
       <r>    0.2896    1.0000 </r>
       <r>    0.5126    1.0000 </r>
       <r>    0.5584    1.0000 </r>
       <r>    0.7118    1.0000 </r>
       <r>    0.8005    1.0000 </r>
       <r>    0.9320    1.0000 </r>
       <r>    1.2613    1.0000 </r>
       <r>    1.3448    1.0000 </r>
       <r>    1.6545    1.0000 </r>
       <r>    1.7298    1.0000 </r>
       <r>    1.8448    1.0000 </r>
       <r>    1.9049    1.0000 </r>
       <r>    2.0216    1.0000 </r>
       <r>    2.0735    1.0000 </r>
       <r>    5.9999    0.0000 </r>
       <r>    6.1537    0.0000 </r>
       <r>    6.6971    0.0000 </r>
       <r>    6.8532    0.0000 </r>
       <r>    6.9877    0.0000 </r>
       <r>    7.1150    0.0000 </r>
       <r>    7.2782    0.0000 </r>
       <r>    7.3437    0.0000 </r>
       <r>    8.6231    0.0000 </r>
       <r>    8.7077    0.0000 </r>
      </set>
     </set>
    </set>
   </array>
  </eigenvalues>
  <separator name="orbital magnetization" >
   <v name="MAGDIPOLOUT">      0.00000000      0.00000000      0.00000000</v>
  </separator>
  <dos>
   <i name="efermi">      2.75372874 </i>
   <total>
    <array>
     <dimension dim="1">gridpoints</dimension>
     <dimension dim="2">spin</dimension>
     <field>energy</field>
     <field>total</field>
     <field>integrated</field>
     <set>
      <set comment="spin 1">
       <r>   -43.8305     0.0000     0.0000 </r>
       <r>   -43.6465     0.0000     0.0000 </r>
       <r>   -43.4626     0.0000     0.0000 </r>
       <r>   -43.2786     0.0000     0.0000 </r>
       <r>   -43.0947     0.0000     0.0000 </r>
       <r>   -42.9107     0.0000     0.0000 </r>
       <r>   -42.7268     0.0000     0.0000 </r>
       <r>   -42.5429     0.0000     0.0000 </r>
       <r>   -42.3589     0.0000     0.0000 </r>
       <r>   -42.1750     0.0000     0.0000 </r>
       <r>   -41.9910     0.0000     0.0000 </r>
       <r>   -41.8071     0.0000     0.0000 </r>
       <r>   -41.6231     0.0000     0.0000 </r>
       <r>   -41.4392     0.0000     0.0000 </r>
       <r>   -41.2552     0.0000     4.0000 </r>
       <r>   -41.0713     0.0000     4.0000 </r>
       <r>   -40.8873     0.0000     4.0000 </r>
       <r>   -40.7034     0.0000    12.0000 </r>
       <r>   -40.5195     0.0000    12.0000 </r>
       <r>   -40.3355     0.0000    12.0000 </r>
       <r>   -40.1516     0.0000    12.0000 </r>
       <r>   -39.9676     0.0000    12.0000 </r>
       <r>   -39.7837     0.0000    12.0000 </r>
       <r>   -39.5997     0.0000    12.0000 </r>
       <r>   -39.4158     0.0000    12.0000 </r>
       <r>   -39.2318     0.0000    12.0000 </r>
       <r>   -39.0479     0.0000    12.0000 </r>
       <r>   -38.8639     0.0000    12.0000 </r>
       <r>   -38.6800     0.0000    12.0000 </r>
       <r>   -38.4961     0.0000    12.0000 </r>
       <r>   -38.3121     0.0000    12.0000 </r>
       <r>   -38.1282     0.0000    12.0000 </r>
       <r>   -37.9442     0.0000    12.0000 </r>
       <r>   -37.7603     0.0000    12.0000 </r>
       <r>   -37.5763     0.0000    12.0000 </r>
       <r>   -37.3924     0.0000    12.0000 </r>
       <r>   -37.2084     0.0000    12.0000 </r>
       <r>   -37.0245     0.0000    12.0000 </r>
       <r>   -36.8405     0.0000    12.0000 </r>
       <r>   -36.6566     0.0000    12.0000 </r>
       <r>   -36.4727     0.0000    12.0000 </r>
       <r>   -36.2887     0.0000    12.0000 </r>
       <r>   -36.1048     0.0000    12.0000 </r>
       <r>   -35.9208     0.0000    12.0000 </r>
       <r>   -35.7369     0.0000    12.0000 </r>
       <r>   -35.5529     0.0000    12.0000 </r>
       <r>   -35.3690     0.0000    12.0000 </r>
       <r>   -35.1850     0.0000    12.0000 </r>
       <r>   -35.0011     0.0000    12.0000 </r>
       <r>   -34.8171     0.0000    12.0000 </r>
       <r>   -34.6332     0.0000    12.0000 </r>
       <r>   -34.4493     0.0000    12.0000 </r>
       <r>   -34.2653     0.0000    12.0000 </r>
       <r>   -34.0814     0.0000    12.0000 </r>
       <r>   -33.8974     0.0000    12.0000 </r>
       <r>   -33.7135     0.0000    12.0000 </r>
       <r>   -33.5295     0.0000    12.0000 </r>
       <r>   -33.3456     0.0000    12.0000 </r>
       <r>   -33.1616     0.0000    12.0000 </r>
       <r>   -32.9777     0.0000    12.0000 </r>
       <r>   -32.7937     0.0000    12.0000 </r>
       <r>   -32.6098     0.0000    12.0000 </r>
       <r>   -32.4259     0.0000    12.0000 </r>
       <r>   -32.2419     0.0000    12.0000 </r>
       <r>   -32.0580     0.0000    12.0000 </r>
       <r>   -31.8740     0.0000    12.0000 </r>
       <r>   -31.6901     0.0000    12.0000 </r>
       <r>   -31.5061     0.0000    12.0000 </r>
       <r>   -31.3222     0.0000    12.0000 </r>
       <r>   -31.1382     0.0000    12.0000 </r>
       <r>   -30.9543     0.0000    12.0000 </r>
       <r>   -30.7703     0.0000    12.0000 </r>
       <r>   -30.5864     0.0000    12.0000 </r>
       <r>   -30.4025     0.0000    12.0000 </r>
       <r>   -30.2185     0.0000    12.0000 </r>
       <r>   -30.0346     0.0000    12.0000 </r>
       <r>   -29.8506     0.0000    12.0000 </r>
       <r>   -29.6667     0.0000    12.0000 </r>
       <r>   -29.4827     0.0000    12.0000 </r>
       <r>   -29.2988     0.0000    12.0000 </r>
       <r>   -29.1148     0.0000    12.0000 </r>
       <r>   -28.9309     0.0000    12.0000 </r>
       <r>   -28.7469     0.0000    12.0000 </r>
       <r>   -28.5630     0.0000    12.0000 </r>
       <r>   -28.3791     0.0000    12.0000 </r>
       <r>   -28.1951     0.0000    12.0000 </r>
       <r>   -28.0112     0.0000    12.0000 </r>
       <r>   -27.8272     0.0000    12.0000 </r>
       <r>   -27.6433     0.0000    12.0000 </r>
       <r>   -27.4593     0.0000    12.0000 </r>
       <r>   -27.2754     0.0000    12.0000 </r>
       <r>   -27.0914     0.0000    12.0000 </r>
       <r>   -26.9075     0.0000    12.0000 </r>
       <r>   -26.7235     0.0000    12.0000 </r>
       <r>   -26.5396     0.0000    12.0000 </r>
       <r>   -26.3557     0.0000    12.0000 </r>
       <r>   -26.1717     0.0000    12.0000 </r>
       <r>   -25.9878     0.0000    12.0000 </r>
       <r>   -25.8038     0.0000    12.0000 </r>
       <r>   -25.6199     0.0000    12.0000 </r>
       <r>   -25.4359     0.0000    12.0000 </r>
       <r>   -25.2520     0.0000    12.0000 </r>
       <r>   -25.0680     0.0000    12.0000 </r>
       <r>   -24.8841     0.0000    12.0000 </r>
       <r>   -24.7001     0.0000    12.0000 </r>
       <r>   -24.5162     0.0000    12.0000 </r>
       <r>   -24.3323     0.0000    12.0000 </r>
       <r>   -24.1483     0.0000    12.0000 </r>
       <r>   -23.9644     0.0000    12.0000 </r>
       <r>   -23.7804     0.0000    12.0000 </r>
       <r>   -23.5965     0.0000    12.0000 </r>
       <r>   -23.4125     0.0000    12.0000 </r>
       <r>   -23.2286     0.0000    12.0000 </r>
       <r>   -23.0446     0.0000    12.0000 </r>
       <r>   -22.8607     0.0000    12.0000 </r>
       <r>   -22.6767     0.0000    12.0000 </r>
       <r>   -22.4928     0.0000    12.0000 </r>
       <r>   -22.3088     0.0000    12.0000 </r>
       <r>   -22.1249     0.0000    12.0000 </r>
       <r>   -21.9410     0.0000    12.0000 </r>
       <r>   -21.7570     0.0000    12.0000 </r>
       <r>   -21.5731     0.0000    12.0000 </r>
       <r>   -21.3891     0.0000    12.0000 </r>
       <r>   -21.2052     0.0000    12.0000 </r>
       <r>   -21.0212     0.0000    12.0000 </r>
       <r>   -20.8373     0.0000    12.0000 </r>
       <r>   -20.6533     0.0000    12.0000 </r>
       <r>   -20.4694     0.0000    12.0000 </r>
       <r>   -20.2854     0.0000    12.0000 </r>
       <r>   -20.1015     0.0000    12.0000 </r>
       <r>   -19.9176     0.0000    12.0000 </r>
       <r>   -19.7336     0.0000    12.0000 </r>
       <r>   -19.5497     0.0000    12.0000 </r>
       <r>   -19.3657     0.0000    12.0000 </r>
       <r>   -19.1818     0.0000    12.0000 </r>
       <r>   -18.9978     0.0000    12.0000 </r>
       <r>   -18.8139     0.0000    12.0000 </r>
       <r>   -18.6299     0.0000    12.0000 </r>
       <r>   -18.4460     0.0000    12.0000 </r>
       <r>   -18.2620     0.0000    12.0000 </r>
       <r>   -18.0781     0.0000    12.0000 </r>
       <r>   -17.8942     0.0000    12.0000 </r>
       <r>   -17.7102     0.0000    12.0000 </r>
       <r>   -17.5263     0.0000    12.0000 </r>
       <r>   -17.3423     0.0000    12.0000 </r>
       <r>   -17.1584     0.0000    12.0000 </r>
       <r>   -16.9744     0.0000    12.0000 </r>
       <r>   -16.7905     0.0000    12.0000 </r>
       <r>   -16.6065     0.0000    12.0000 </r>
       <r>   -16.4226     0.0000    12.0000 </r>
       <r>   -16.2386     0.0000    12.0000 </r>
       <r>   -16.0547     0.0000    12.0000 </r>
       <r>   -15.8708     0.0000    12.0000 </r>
       <r>   -15.6868     0.0000    12.0000 </r>
       <r>   -15.5029     0.0000    12.0000 </r>
       <r>   -15.3189     0.0000    12.0000 </r>
       <r>   -15.1350     0.0000    12.0000 </r>
       <r>   -14.9510     0.0000    12.0000 </r>
       <r>   -14.7671     0.0000    12.0000 </r>
       <r>   -14.5831     0.0000    12.0000 </r>
       <r>   -14.3992     0.0000    12.0000 </r>
       <r>   -14.2152     0.0000    12.0000 </r>
       <r>   -14.0313     0.0000    12.0000 </r>
       <r>   -13.8474     0.0000    12.0000 </r>
       <r>   -13.6634     0.0000    12.0000 </r>
       <r>   -13.4795     0.0000    12.0000 </r>
       <r>   -13.2955     0.0000    12.0000 </r>
       <r>   -13.1116     0.0000    12.0000 </r>
       <r>   -12.9276     0.0000    12.0000 </r>
       <r>   -12.7437     0.0000    12.0000 </r>
       <r>   -12.5597     0.0000    12.0000 </r>
       <r>   -12.3758    19.2675    15.7618 </r>
       <r>   -12.1918     0.0000    16.0000 </r>
       <r>   -12.0079     0.0000    16.0000 </r>
       <r>   -11.8240     0.0000    16.0000 </r>
       <r>   -11.6400     0.0000    16.0000 </r>
       <r>   -11.4561     0.0000    16.0000 </r>
       <r>   -11.2721     0.0000    16.0000 </r>
       <r>   -11.0882     0.0000    16.0000 </r>
       <r>   -10.9042     0.0000    16.0000 </r>
       <r>   -10.7203     0.0000    16.0000 </r>
       <r>   -10.5363     0.0000    16.0000 </r>
       <r>   -10.3524     0.0000    16.0000 </r>
       <r>   -10.1684     0.0000    16.0000 </r>
       <r>    -9.9845     0.0000    16.0000 </r>
       <r>    -9.8006     0.0000    16.0000 </r>
       <r>    -9.6166     3.3554    16.0380 </r>
       <r>    -9.4327     0.0000    20.0000 </r>
       <r>    -9.2487     7.9031    23.8508 </r>
       <r>    -9.0648     0.0000    28.0000 </r>
       <r>    -8.8808     0.0000    28.0000 </r>
       <r>    -8.6969     0.0000    28.0000 </r>
       <r>    -8.5129     0.0000    28.0000 </r>
       <r>    -8.3290     0.0000    28.0000 </r>
       <r>    -8.1450     0.0000    28.0000 </r>
       <r>    -7.9611     0.0000    28.0000 </r>
       <r>    -7.7772     0.0000    28.0000 </r>
       <r>    -7.5932     0.0000    28.0000 </r>
       <r>    -7.4093     0.0000    28.0000 </r>
       <r>    -7.2253     0.0000    28.0000 </r>
       <r>    -7.0414     0.0000    28.0000 </r>
       <r>    -6.8574     0.0000    28.0000 </r>
       <r>    -6.6735     0.0000    28.0000 </r>
       <r>    -6.4895     0.0000    28.0000 </r>
       <r>    -6.3056     0.0000    28.0000 </r>
       <r>    -6.1216     0.0000    28.0000 </r>
       <r>    -5.9377     0.0000    28.0000 </r>
       <r>    -5.7538     0.0000    28.0000 </r>
       <r>    -5.5698     0.0000    28.0000 </r>
       <r>    -5.3859     0.9133    28.0380 </r>
       <r>    -5.2019     3.2574    28.4166 </r>
       <r>    -5.0180     5.1501    29.4007 </r>
       <r>    -4.8340    11.1066    31.8001 </r>
       <r>    -4.6501     0.0000    32.0000 </r>
       <r>    -4.4661     0.0000    32.0000 </r>
       <r>    -4.2822     0.0000    32.0000 </r>
       <r>    -4.0982     0.0000    32.0000 </r>
       <r>    -3.9143     0.0000    32.0000 </r>
       <r>    -3.7304     0.0000    32.0000 </r>
       <r>    -3.5464     0.0000    32.0000 </r>
       <r>    -3.3625     0.0000    32.0000 </r>
       <r>    -3.1785     0.0000    32.0000 </r>
       <r>    -2.9946     0.0000    32.0000 </r>
       <r>    -2.8106     0.0000    32.0000 </r>
       <r>    -2.6267     0.0000    32.0000 </r>
       <r>    -2.4427    10.7561    32.9821 </r>
       <r>    -2.2588     5.9255    35.4272 </r>
       <r>    -2.0748    12.6878    38.7361 </r>
       <r>    -1.8909     0.0000    40.0000 </r>
       <r>    -1.7070    40.6049    43.2623 </r>
       <r>    -1.5230     0.0000    44.0000 </r>
       <r>    -1.3391     0.0000    44.0000 </r>
       <r>    -1.1551     0.0000    44.0000 </r>
       <r>    -0.9712     0.0000    44.0000 </r>
       <r>    -0.7872     0.0000    44.0000 </r>
       <r>    -0.6033     0.0000    44.0000 </r>
       <r>    -0.4193     2.8849    44.3670 </r>
       <r>    -0.2354    11.1689    45.6931 </r>
       <r>    -0.0514     7.7016    47.8400 </r>
       <r>     0.1325    10.0841    49.3864 </r>
       <r>     0.3165     7.8456    51.5784 </r>
       <r>     0.5004     5.3738    53.1258 </r>
       <r>     0.6843     0.0000    54.0000 </r>
       <r>     0.8683     4.6835    56.7748 </r>
       <r>     1.0522     7.6962    57.9288 </r>
       <r>     1.2362     6.0527    59.7238 </r>
       <r>     1.4201    10.3975    62.3622 </r>
       <r>     1.6041     7.8615    64.1263 </r>
       <r>     1.7880    14.3074    66.5358 </r>
       <r>     1.9720    19.9944    69.8677 </r>
       <r>     2.1559     6.9082    73.0904 </r>
       <r>     2.3399     3.1564    75.0323 </r>
       <r>     2.5238     2.4382    75.7282 </r>
       <r>     2.7077     0.0000    76.0000 </r>
       <r>     2.8917     0.0000    76.0000 </r>
       <r>     3.0756     0.0000    76.0000 </r>
       <r>     3.2596     0.0000    76.0000 </r>
       <r>     3.4435     0.0000    76.0000 </r>
       <r>     3.6275     0.0000    76.0000 </r>
       <r>     3.8114     0.0000    76.0000 </r>
       <r>     3.9954     0.0000    76.0000 </r>
       <r>     4.1793     0.0000    76.0000 </r>
       <r>     4.3633     0.0000    76.0000 </r>
       <r>     4.5472     0.0000    76.0000 </r>
       <r>     4.7311     0.0000    76.0000 </r>
       <r>     4.9151     0.0000    76.0000 </r>
       <r>     5.0990     0.9213    76.1495 </r>
       <r>     5.2830     1.8565    76.4083 </r>
       <r>     5.4669     3.1716    76.9349 </r>
       <r>     5.6509     4.8896    77.6675 </r>
       <r>     5.8348     5.3791    78.8671 </r>
       <r>     6.0188     3.3695    79.7739 </r>
       <r>     6.2027     3.1644    80.5269 </r>
       <r>     6.3867     6.1750    81.3765 </r>
       <r>     6.5706     9.9880    83.1373 </r>
       <r>     6.7545     5.8739    84.7049 </r>
       <r>     6.9385     6.4865    86.0327 </r>
       <r>     7.1224    10.7490    87.2913 </r>
       <r>     7.3064    15.8906    88.7497 </r>
       <r>     7.4903     5.5687    91.5428 </r>
       <r>     7.6743     0.6720    91.9566 </r>
       <r>     7.8582     0.0000    92.0000 </r>
       <r>     8.0422     0.0000    92.0000 </r>
       <r>     8.2261     4.0639    92.8802 </r>
       <r>     8.4101    12.8395    93.8611 </r>
       <r>     8.5940     3.6149    95.4675 </r>
       <r>     8.7779     1.1854    95.9050 </r>
       <r>     8.9619     0.0000    96.0000 </r>
       <r>     9.1458     0.0000    96.0000 </r>
       <r>     9.3298     0.0000    96.0000 </r>
       <r>     9.5137     0.0000    96.0000 </r>
       <r>     9.6977     0.0000    96.0000 </r>
       <r>     9.8816     0.0000    96.0000 </r>
       <r>    10.0656     0.0000    96.0000 </r>
       <r>    10.2495     0.0000    96.0000 </r>
       <r>    10.4335     0.0000    96.0000 </r>
       <r>    10.6174     0.0000    96.0000 </r>
       <r>    10.8013     0.0000    96.0000 </r>
       <r>    10.9853     0.0000    96.0000 </r>
       <r>    11.1692     0.0000    96.0000 </r>
       <r>    11.3532     0.0000    96.0000 </r>
      </set>
     </set>
    </array>
   </total>
  </dos>
 </calculation>
 <structure name="finalpos" >
  <crystal>
   <varray name="basis" >
    <v>       7.27308733       0.00000000       0.00000000 </v>
    <v>       0.00000000       5.62246158       0.00000000 </v>
    <v>       0.00000000       0.00000000       7.00012434 </v>
   </varray>
   <i name="volume">    286.25366308 </i>
   <varray name="rec_basis" >
    <v>       0.13749319       0.00000000       0.00000000 </v>
    <v>       0.00000000       0.17785804       0.00000000 </v>
    <v>       0.00000000       0.00000000       0.14285461 </v>
   </varray>
  </crystal>
  <varray name="positions" >
   <v>       0.00000000       0.75131010       0.38340780 </v>
   <v>       0.50000000       0.24868990       0.88340780 </v>
   <v>       0.22798462       0.54019990       0.42180844 </v>
   <v>       0.27201538       0.45980010       0.92180844 </v>
   <v>       0.72798462       0.45980010       0.92180844 </v>
   <v>       0.77201538       0.54019990       0.42180844 </v>
   <v>       0.00000000      -0.07963399       0.13161645 </v>
   <v>       0.50000000       0.07963399       0.63161645 </v>
   <v>       0.00000000      -0.04212311       0.62569621 </v>
   <v>       0.50000000       0.04212311       0.12569621 </v>
   <v>       0.00000000       0.37788204       0.67368201 </v>
   <v>       0.50000000       0.62211796       0.17368201 </v>
   <v>       0.28275394       0.78095451       0.70225763 </v>
   <v>       0.21724606       0.21904549       0.20225763 </v>
   <v>       0.78275394       0.21904549       0.20225763 </v>
   <v>       0.71724606       0.78095451       0.70225763 </v>
  </varray>
 </structure>
</modeling>
