unknown system                          
           1
     7.869267    0.000000    0.000000
     0.000000    5.611374    0.000000
     0.000000    0.000000    7.362169
   P    S    Li
   2   8   6
Direct configuration=     1
   0.00000000  0.86662753  0.41048436
   0.50000000  0.13337247  0.91048436
   0.21475036  0.66418718  0.42154189
   0.28524964  0.33581282  0.92154189
   0.71475036  0.33581282  0.92154189
   0.78524964  0.66418718  0.42154189
   0.00000000  0.07323600  0.18513284
   0.50000000  0.92676400  0.68513284
   0.00000000  0.06655419  0.64449821
   0.50000000  0.93344581  0.14449821
   0.00000000  0.54053278  0.61891577
   0.50000000  0.45946722  0.11891577
   0.36704867  0.59701804  0.68020982
   0.13295133  0.40298196  0.18020982
   0.86704867  0.40298196  0.18020982
   0.63295133  0.59701804  0.68020982
unknown system                          
           1
     8.035600    0.000000    0.000000
     0.000000    5.590107    0.000000
     0.000000    0.000000    7.416756
   P    S    Li
   2   8   6
Direct configuration=     2
   0.00000000  0.89251007  0.41927349
   0.50000000  0.10748993  0.91927349
   0.21343274  0.65791470  0.41531273
   0.28656726  0.34208530  0.91531273
   0.71343274  0.34208530  0.91531273
   0.78656726  0.65791470  0.41531273
   0.00000000  0.05449946  0.18239926
   0.50000000  0.94550054  0.68239926
   0.00000000  0.05979164  0.64034280
   0.50000000  0.94020836  0.14034280
   0.00000000  0.53143096  0.62290695
   0.50000000  0.46856904  0.12290695
   0.35579207  0.59295036  0.68349332
   0.14420793  0.40704964  0.18349332
   0.85579207  0.40704964  0.18349332
   0.64420793  0.59295036  0.68349332
unknown system                          
           1
     8.025482    0.000000    0.000000
     0.000000    5.591400    0.000000
     0.000000    0.000000    7.413436
   P    S    Li
   2   8   6
Direct configuration=     3
   0.00000000  0.89092966  0.41874279
   0.50000000  0.10907034  0.91874279
   0.21351123  0.65829770  0.41568886
   0.28648877  0.34170230  0.91568886
   0.71351123  0.34170230  0.91568886
   0.78648877  0.65829770  0.41568886
   0.00000000  0.05564353  0.18256431
   0.50000000  0.94435647  0.68256431
   0.00000000  0.06020457  0.64059371
   0.50000000  0.93979543  0.14059371
   0.00000000  0.53198672  0.62266596
   0.50000000  0.46801328  0.12266596
   0.35646263  0.59319874  0.68329505
   0.14353737  0.40680126  0.18329505
   0.85646263  0.40680126  0.18329505
   0.64353737  0.59319874  0.68329505
unknown system                          
           1
     8.038384    0.000000    0.000000
     0.000000    5.554514    0.000000
     0.000000    0.000000    7.621927
   P    S    Li
   2   8   6
Direct configuration=     4
   0.00000000  0.89183041  0.41582186
   0.50000000  0.10816959  0.91582186
   0.20863665  0.65583016  0.41256791
   0.29136335  0.34416984  0.91256791
   0.70863665  0.34416984  0.91256791
   0.79136335  0.65583016  0.41256791
   0.00000000  0.04673157  0.17703879
   0.50000000  0.95326843  0.67703879
   0.00000000  0.06441337  0.64887708
   0.50000000  0.93558663  0.14887708
   0.00000000  0.52246374  0.62495146
   0.50000000  0.47753626  0.12495146
   0.34706882  0.59309297  0.68535480
   0.15293118  0.40690703  0.18535480
   0.84706882  0.40690703  0.18535480
   0.65293118  0.59309297  0.68535480
unknown system                          
           1
     8.038390    0.000000    0.000000
     0.000000    5.554498    0.000000
     0.000000    0.000000    7.622017
   P    S    Li
   2   8   6
Direct configuration=     5
   0.00000000  0.89183080  0.41582062
   0.50000000  0.10816920  0.91582062
   0.20863453  0.65582908  0.41256659
   0.29136547  0.34417092  0.91256659
   0.70863453  0.34417092  0.91256659
   0.79136547  0.65582908  0.41256659
   0.00000000  0.04672766  0.17703645
   0.50000000  0.95327234  0.67703645
   0.00000000  0.06441522  0.64888059
   0.50000000  0.93558478  0.14888059
   0.00000000  0.52245957  0.62495243
   0.50000000  0.47754043  0.12495243
   0.34706473  0.59309292  0.68535567
   0.15293527  0.40690708  0.18535567
   0.84706473  0.40690708  0.18535567
   0.65293527  0.59309292  0.68535567
unknown system                          
           1
     8.006379    0.000000    0.000000
     0.000000    5.430272    0.000000
     0.000000    0.000000    7.632209
   P    S    Li
   2   8   6
Direct configuration=     6
   0.00000000  0.89118231  0.41678933
   0.50000000  0.10881769  0.91678933
   0.20386302  0.65575612  0.41331984
   0.29613698  0.34424388  0.91331984
   0.70386302  0.34424388  0.91331984
   0.79613698  0.65575612  0.41331984
   0.00000000  0.04373843  0.17507329
   0.50000000  0.95626157  0.67507329
   0.00000000  0.06282734  0.64764654
   0.50000000  0.93717266  0.14764654
   0.00000000  0.51281062  0.62555853
   0.50000000  0.48718938  0.12555853
   0.33958634  0.59677756  0.68541361
   0.16041366  0.40322244  0.18541361
   0.83958634  0.40322244  0.18541361
   0.66041366  0.59677756  0.68541361
unknown system                          
           1
     7.991728    0.000000    0.000000
     0.000000    5.373415    0.000000
     0.000000    0.000000    7.636874
   P    S    Li
   2   8   6
Direct configuration=     7
   0.00000000  0.89087871  0.41723212
   0.50000000  0.10912129  0.91723212
   0.20167040  0.65572197  0.41366414
   0.29832960  0.34427803  0.91366414
   0.70167040  0.34427803  0.91366414
   0.79832960  0.65572197  0.41366414
   0.00000000  0.04233898  0.17417597
   0.50000000  0.95766102  0.67417597
   0.00000000  0.06208395  0.64708249
   0.50000000  0.93791605  0.14708249
   0.00000000  0.50829335  0.62583556
   0.50000000  0.49170665  0.12583556
   0.33614985  0.59850257  0.68544009
   0.16385015  0.40149743  0.18544009
   0.83614985  0.40149743  0.18544009
   0.66385015  0.59850257  0.68544009
unknown system                          
           1
     8.115003    0.000000    0.000000
     0.000000    5.284778    0.000000
     0.000000    0.000000    7.640107
   P    S    Li
   2   8   6
Direct configuration=     8
   0.00000000  0.89200677  0.41444580
   0.50000000  0.10799323  0.91444580
   0.20178427  0.65210821  0.41721855
   0.29821573  0.34789179  0.91721855
   0.70178427  0.34789179  0.91721855
   0.79821573  0.65210821  0.41721855
   0.00000000  0.04287424  0.17405901
   0.50000000  0.95712576  0.67405901
   0.00000000  0.06081030  0.64600737
   0.50000000  0.93918970  0.14600737
   0.00000000  0.49597112  0.62575732
   0.50000000  0.50402888  0.12575732
   0.32899145  0.60617094  0.68391400
   0.17100855  0.39382906  0.18391400
   0.82899145  0.39382906  0.18391400
   0.67100855  0.60617094  0.68391400
unknown system                          
           1
     8.187120    0.000000    0.000000
     0.000000    5.232924    0.000000
     0.000000    0.000000    7.641998
   P    S    Li
   2   8   6
Direct configuration=     9
   0.00000000  0.89267778  0.41281644
   0.50000000  0.10732222  0.91281644
   0.20184988  0.64995864  0.41929706
   0.29815012  0.35004136  0.91929706
   0.70184988  0.35004136  0.91929706
   0.79815012  0.64995864  0.41929706
   0.00000000  0.04319263  0.17399062
   0.50000000  0.95680737  0.67399062
   0.00000000  0.06005269  0.64537867
   0.50000000  0.93994731  0.14537867
   0.00000000  0.48864148  0.62571157
   0.50000000  0.51135852  0.12571157
   0.32486726  0.61073231  0.68302159
   0.17513274  0.38926769  0.18302159
   0.82486726  0.38926769  0.18302159
   0.67513274  0.61073231  0.68302159
unknown system                          
           1
     8.286813    0.000000    0.000000
     0.000000    5.234878    0.000000
     0.000000    0.000000    7.725622
   P    S    Li
   2   8   6
Direct configuration=    10
   0.00000000  0.88344361  0.41276365
   0.50000000  0.11655639  0.91276365
   0.20125810  0.64651779  0.42038802
   0.29874190  0.35348221  0.92038802
   0.70125810  0.35348221  0.92038802
   0.79874190  0.64651779  0.42038802
   0.00000000  0.04633677  0.17192431
   0.50000000  0.95366323  0.67192431
   0.00000000  0.05745665  0.64642767
   0.50000000  0.94254335  0.14642767
   0.00000000  0.48218010  0.62428974
   0.50000000  0.51781990  0.12428974
   0.32116368  0.61825596  0.68317660
   0.17883632  0.38174404  0.18317660
   0.82116368  0.38174404  0.18317660
   0.67883632  0.61825596  0.68317660
unknown system                          
           1
     8.276856    0.000000    0.000000
     0.000000    5.234683    0.000000
     0.000000    0.000000    7.717270
   P    S    Li
   2   8   6
Direct configuration=    11
   0.00000000  0.88436561  0.41276886
   0.50000000  0.11563439  0.91276886
   0.20131649  0.64686135  0.42028023
   0.29868351  0.35313865  0.92028023
   0.70131649  0.35313865  0.92028023
   0.79868351  0.64686135  0.42028023
   0.00000000  0.04602284  0.17212847
   0.50000000  0.95397716  0.67212847
   0.00000000  0.05771586  0.64632403
   0.50000000  0.94228414  0.14632403
   0.00000000  0.48282525  0.62443022
   0.50000000  0.51717475  0.12443022
   0.32152916  0.61750475  0.68316128
   0.17847084  0.38249525  0.18316128
   0.82152916  0.38249525  0.18316128
   0.67847084  0.61750475  0.68316128
unknown system                          
           1
     8.335840    0.000000    0.000000
     0.000000    5.249101    0.000000
     0.000000    0.000000    7.705343
   P    S    Li
   2   8   6
Direct configuration=    12
   0.00000000  0.87631207  0.41254040
   0.50000000  0.12368793  0.91254040
   0.19947508  0.64319449  0.41948046
   0.30052492  0.35680551  0.91948046
   0.69947508  0.35680551  0.91948046
   0.80052492  0.64319449  0.41948046
   0.00000000  0.04543560  0.17425814
   0.50000000  0.95456440  0.67425814
   0.00000000  0.04983573  0.64524174
   0.50000000  0.95016427  0.14524174
   0.00000000  0.47913382  0.62197844
   0.50000000  0.52086618  0.12197844
   0.31899448  0.62558992  0.68477748
   0.18100552  0.37441008  0.18477748
   0.81899448  0.37441008  0.18477748
   0.68100552  0.62558992  0.68477748
unknown system                          
           1
     8.512795    0.000000    0.000000
     0.000000    5.292355    0.000000
     0.000000    0.000000    7.669565
   P    S    Li
   2   8   6
Direct configuration=    13
   0.00000000  0.85221781  0.41185396
   0.50000000  0.14778219  0.91185396
   0.19398991  0.63222412  0.41707744
   0.30601009  0.36777588  0.91707744
   0.69398991  0.36777588  0.91707744
   0.80601009  0.63222412  0.41707744
   0.00000000  0.04367872  0.18065706
   0.50000000  0.95632128  0.68065706
   0.00000000  0.02626030  0.64198985
   0.50000000  0.97373970  0.14198985
   0.00000000  0.46808997  0.61461169
   0.50000000  0.53191003  0.11461169
   0.31144427  0.64977878  0.68963358
   0.18855573  0.35022122  0.18963358
   0.81144427  0.35022122  0.18963358
   0.68855573  0.64977878  0.68963358
unknown system                          
           1
     8.550466    0.000000    0.000000
     0.000000    5.308046    0.000000
     0.000000    0.000000    7.662098
   P    S    Li
   2   8   6
Direct configuration=    14
   0.00000000  0.85033332  0.41087223
   0.50000000  0.14966668  0.91087223
   0.19378975  0.62932412  0.41648847
   0.30621025  0.37067588  0.91648847
   0.69378975  0.37067588  0.91648847
   0.80621025  0.62932412  0.41648847
   0.00000000  0.04233674  0.18204781
   0.50000000  0.95766326  0.68204781
   0.00000000  0.02230407  0.64215234
   0.50000000  0.97769593  0.14215234
   0.00000000  0.46536623  0.61340661
   0.50000000  0.53463377  0.11340661
   0.31007648  0.65453988  0.69053934
   0.18992352  0.34546012  0.19053934
   0.81007648  0.34546012  0.19053934
   0.68992352  0.65453988  0.69053934
unknown system                          
           1
     8.663478    0.000000    0.000000
     0.000000    5.355117    0.000000
     0.000000    0.000000    7.639698
   P    S    Li
   2   8   6
Direct configuration=    15
   0.00000000  0.84469657  0.40792418
   0.50000000  0.15530343  0.90792418
   0.19319192  0.62064984  0.41471981
   0.30680808  0.37935016  0.91471981
   0.69319192  0.37935016  0.91471981
   0.80680808  0.62064984  0.41471981
   0.00000000  0.03832270  0.18622412
   0.50000000  0.96167730  0.68622412
   0.00000000  0.01047049  0.64264029
   0.50000000  0.98952951  0.14264029
   0.00000000  0.45721919  0.60978785
   0.50000000  0.54278081  0.10978785
   0.30599116  0.66878094  0.69325928
   0.19400884  0.33121906  0.19325928
   0.80599116  0.33121906  0.19325928
   0.69400884  0.66878094  0.69325928
unknown system                          
           1
     8.889503    0.000000    0.000000
     0.000000    5.449259    0.000000
     0.000000    0.000000    7.594898
   P    S    Li
   2   8   6
Direct configuration=    16
   0.00000000  0.83352214  0.40201078
   0.50000000  0.16647786  0.90201078
   0.19201185  0.60345378  0.41117212
   0.30798815  0.39654622  0.91117212
   0.69201185  0.39654622  0.91117212
   0.80798815  0.60345378  0.41117212
   0.00000000  0.03036518  0.19460123
   0.50000000  0.96963482  0.69460123
   0.00000000 -0.01298865  0.64361906
   0.50000000  0.01298865  0.14361906
   0.00000000  0.44106832  0.60252911
   0.50000000  0.55893168  0.10252911
   0.29792711  0.69701272  0.69871509
   0.20207289  0.30298728  0.19871509
   0.79792711  0.30298728  0.19871509
   0.70207289  0.69701272  0.69871509
unknown system                          
           1
     8.738868    0.000000    0.000000
     0.000000    5.386518    0.000000
     0.000000    0.000000    7.624755
   P    S    Li
   2   8   6
Direct configuration=    17
   0.00000000  0.84084071  0.40597503
   0.50000000  0.15915929  0.90597503
   0.19277831  0.61471615  0.41355043
   0.30722169  0.38528385  0.91355043
   0.69277831  0.38528385  0.91355043
   0.80722169  0.61471615  0.41355043
   0.00000000  0.03557687  0.18898535
   0.50000000  0.96442313  0.68898535
   0.00000000  0.00237565  0.64296291
   0.50000000 -0.00237565  0.14296291
   0.00000000  0.45164615  0.60739525
   0.50000000  0.54835385  0.10739525
   0.30316477  0.67852264  0.69505760
   0.19683523  0.32147736  0.19505760
   0.80316477  0.32147736  0.19505760
   0.69683523  0.67852264  0.69505760
unknown system                          
           1
     8.748053    0.000000    0.000000
     0.000000    5.413404    0.000000
     0.000000    0.000000    7.621941
   P    S    Li
   2   8   6
Direct configuration=    18
   0.00000000  0.83657300  0.40573986
   0.50000000  0.16342700  0.90573986
   0.19237112  0.61028951  0.41261084
   0.30762888  0.38971049  0.91261084
   0.69237112  0.38971049  0.91261084
   0.80762888  0.61028951  0.41261084
   0.00000000  0.03390478  0.18942651
   0.50000000  0.96609522  0.68942651
   0.00000000 -0.00370013  0.64391399
   0.50000000  0.00370013  0.14391399
   0.00000000  0.44595396  0.60562390
   0.50000000  0.55404604  0.10562390
   0.30066301  0.68688527  0.69630434
   0.19933699  0.31311473  0.19630434
   0.80066301  0.31311473  0.19630434
   0.69933699  0.68688527  0.69630434
unknown system                          
           1
     8.775608    0.000000    0.000000
     0.000000    5.494064    0.000000
     0.000000    0.000000    7.613499
   P    S    Li
   2   8   6
Direct configuration=    19
   0.00000000  0.82383346  0.40503408
   0.50000000  0.17616654  0.90503408
   0.19115085  0.59707555  0.40979101
   0.30884915  0.40292445  0.90979101
   0.69115085  0.40292445  0.90979101
   0.80884915  0.59707555  0.40979101
   0.00000000  0.02891342  0.19075048
   0.50000000  0.97108658  0.69075048
   0.00000000 -0.02183693  0.64676827
   0.50000000  0.02183693  0.14676827
   0.00000000  0.42896222  0.60030789
   0.50000000  0.57103778  0.10030789
   0.29316560  0.71184856  0.70004593
   0.20683440  0.28815144  0.20004593
   0.79316560  0.28815144  0.20004593
   0.70683440  0.71184856  0.70004593
unknown system                          
           1
     8.830717    0.000000    0.000000
     0.000000    5.655382    0.000000
     0.000000    0.000000    7.596614
   P    S    Li
   2   8   6
Direct configuration=    20
   0.00000000  0.79872845  0.40362097
   0.50000000  0.20127155  0.90362097
   0.18871796  0.57103563  0.40414512
   0.31128204  0.42896437  0.90414512
   0.68871796  0.42896437  0.90414512
   0.81128204  0.57103563  0.40414512
   0.00000000  0.01907727  0.19340135
   0.50000000  0.98092273  0.69340135
   0.00000000 -0.05757798  0.65248318
   0.50000000  0.05757798  0.15248318
   0.00000000  0.39547764  0.58966407
   0.50000000  0.60452236  0.08966407
   0.27821786  0.76104215  0.70753740
   0.22178214  0.23895785  0.20753740
   0.77821786  0.23895785  0.20753740
   0.72178214  0.76104215  0.70753740
unknown system                          
           1
     8.806704    0.000000    0.000000
     0.000000    5.585090    0.000000
     0.000000    0.000000    7.603971
   P    S    Li
   2   8   6
Direct configuration=    21
   0.00000000  0.80935550  0.40423808
   0.50000000  0.19064450  0.90423808
   0.18977143  0.58205843  0.40661069
   0.31022857  0.41794157  0.90661069
   0.68977143  0.41794157  0.90661069
   0.81022857  0.58205843  0.40661069
   0.00000000  0.02324095  0.19224371
   0.50000000  0.97675905  0.69224371
   0.00000000 -0.04244865  0.64998747
   0.50000000  0.04244865  0.14998747
   0.00000000  0.40965180  0.59431224
   0.50000000  0.59034820  0.09431224
   0.28469044  0.74021831  0.70426586
   0.21530956  0.25978169  0.20426586
   0.78469044  0.25978169  0.20426586
   0.71530956  0.74021831  0.70426586
unknown system                          
           1
     8.730678    0.000000    0.000000
     0.000000    5.596131    0.000000
     0.000000    0.000000    7.549904
   P    S    Li
   2   8   6
Direct configuration=    22
   0.00000000  0.80059519  0.40387254
   0.50000000  0.19940481  0.90387254
   0.18892395  0.57723164  0.40571667
   0.31107605  0.42276836  0.90571667
   0.68892395  0.42276836  0.90571667
   0.81107605  0.57723164  0.40571667
   0.00000000  0.01975909  0.19283600
   0.50000000  0.98024091  0.69283600
   0.00000000 -0.05120603  0.65129138
   0.50000000  0.05120603  0.15129138
   0.00000000  0.39965004  0.59194654
   0.50000000  0.60034996  0.09194654
   0.28020480  0.75247750  0.70557740
   0.21979520  0.24752250  0.20557740
   0.78020480  0.24752250  0.20557740
   0.71979520  0.75247750  0.70557740
unknown system                          
           1
     8.582531    0.000000    0.000000
     0.000000    5.617644    0.000000
     0.000000    0.000000    7.444546
   P    S    Li
   2   8   6
Direct configuration=    23
   0.00000000  0.78355830  0.40315515
   0.50000000  0.21644170  0.90315515
   0.18725815  0.56784458  0.40396208
   0.31274185  0.43215542  0.90396208
   0.68725815  0.43215542  0.90396208
   0.81274185  0.56784458  0.40396208
   0.00000000  0.01298762  0.19399842
   0.50000000  0.98701238  0.69399842
   0.00000000 -0.06823723  0.65385040
   0.50000000  0.06823723  0.15385040
   0.00000000  0.38019882  0.58730367
   0.50000000  0.61980118  0.08730367
   0.27138785  0.77631896  0.70815141
   0.22861215  0.22368104  0.20815141
   0.77138785  0.22368104  0.20815141
   0.72861215  0.77631896  0.70815141
unknown system                          
           1
     8.545330    0.000000    0.000000
     0.000000    5.604734    0.000000
     0.000000    0.000000    7.374721
   P    S    Li
   2   8   6
Direct configuration=    24
   0.00000000  0.78038725  0.40168401
   0.50000000  0.21961275  0.90168401
   0.18956403  0.56593971  0.40405501
   0.31043597  0.43406029  0.90405501
   0.68956403  0.43406029  0.90405501
   0.81043597  0.56593971  0.40405501
   0.00000000  0.00986934  0.19431511
   0.50000000  0.99013066  0.69431511
   0.00000000 -0.06986747  0.65524666
   0.50000000  0.06986747  0.15524666
   0.00000000  0.37364508  0.58718591
   0.50000000  0.62635492  0.08718591
   0.26868488  0.78034626  0.70799644
   0.23131512  0.21965374  0.20799644
   0.76868488  0.21965374  0.20799644
   0.73131512  0.78034626  0.70799644
unknown system                          
           1
     8.433725    0.000000    0.000000
     0.000000    5.566005    0.000000
     0.000000    0.000000    7.165244
   P    S    Li
   2   8   6
Direct configuration=    25
   0.00000000  0.77085218  0.39722883
   0.50000000  0.22914782  0.89722883
   0.19651178  0.56021195  0.40433645
   0.30348822  0.43978805  0.90433645
   0.69651178  0.43978805  0.90433645
   0.80348822  0.56021195  0.40433645
   0.00000000  0.00049295  0.19527420
   0.50000000  0.99950705  0.69527420
   0.00000000 -0.07476945  0.65947511
   0.50000000  0.07476945  0.15947511
   0.00000000  0.35393859  0.58682927
   0.50000000  0.64606141  0.08682927
   0.26054064  0.79245598  0.70752714
   0.23945936  0.20754402  0.20752714
   0.76054064  0.20754402  0.20752714
   0.73945936  0.79245598  0.70752714
unknown system                          
           1
     8.384735    0.000000    0.000000
     0.000000    5.560270    0.000000
     0.000000    0.000000    7.112064
   P    S    Li
   2   8   6
Direct configuration=    26
   0.00000000  0.76412372  0.39821929
   0.50000000  0.23587628  0.89821929
   0.19979600  0.55850040  0.40483108
   0.30020400  0.44149960  0.90483108
   0.69979600  0.44149960  0.90483108
   0.80020400  0.55850040  0.40483108
   0.00000000 -0.00001956  0.19203029
   0.50000000  0.00001956  0.69203029
   0.00000000 -0.07493092  0.66149968
   0.50000000  0.07493092  0.16149968
   0.00000000  0.34616579  0.58716491
   0.50000000  0.65383421  0.08716491
   0.25782283  0.79542939  0.70697914
   0.24217717  0.20457061  0.20697914
   0.75782283  0.20457061  0.20697914
   0.74217717  0.79542939  0.70697914
unknown system                          
           1
     8.340119    0.000000    0.000000
     0.000000    5.555047    0.000000
     0.000000    0.000000    7.063632
   P    S    Li
   2   8   6
Direct configuration=    27
   0.00000000  0.75798963  0.39912807
   0.50000000  0.24201037  0.89912807
   0.20280450  0.55694005  0.40528492
   0.29719550  0.44305995  0.90528492
   0.70280450  0.44305995  0.90528492
   0.79719550  0.55694005  0.40528492
   0.00000000 -0.00048679  0.18905389
   0.50000000  0.00048679  0.68905389
   0.00000000 -0.07507813  0.66335729
   0.50000000  0.07507813  0.16335729
   0.00000000  0.33907960  0.58747287
   0.50000000  0.66092040  0.08747287
   0.25533318  0.79814013  0.70647632
   0.24466682  0.20185987  0.20647632
   0.75533318  0.20185987  0.20647632
   0.74466682  0.79814013  0.70647632
unknown system                          
           1
     8.345325    0.000000    0.000000
     0.000000    5.555657    0.000000
     0.000000    0.000000    7.069284
   P    S    Li
   2   8   6
Direct configuration=    28
   0.00000000  0.75870609  0.39902129
   0.50000000  0.24129391  0.89902129
   0.20245156  0.55712230  0.40523160
   0.29754844  0.44287770  0.90523160
   0.70245156  0.44287770  0.90523160
   0.79754844  0.55712230  0.40523160
   0.00000000 -0.00043222  0.18940358
   0.50000000  0.00043222  0.68940358
   0.00000000 -0.07506093  0.66313905
   0.50000000  0.07506093  0.16313905
   0.00000000  0.33990726  0.58743669
   0.50000000  0.66009274  0.08743669
   0.25562525  0.79782352  0.70653540
   0.24437475  0.20217648  0.20653540
   0.75562525  0.20217648  0.20653540
   0.74437475  0.79782352  0.70653540
unknown system                          
           1
     8.336311    0.000000    0.000000
     0.000000    5.553240    0.000000
     0.000000    0.000000    7.064902
   P    S    Li
   2   8   6
Direct configuration=    29
   0.00000000  0.75945310  0.39915776
   0.50000000  0.24054690  0.89915776
   0.20269997  0.55725289  0.40581788
   0.29730003  0.44274711  0.90581788
   0.70269997  0.44274711  0.90581788
   0.79730003  0.55725289  0.40581788
   0.00000000 -0.00060932  0.18828932
   0.50000000  0.00060932  0.68828932
   0.00000000 -0.07409839  0.66317046
   0.50000000  0.07409839  0.16317046
   0.00000000  0.33952135  0.58763633
   0.50000000  0.66047865  0.08763633
   0.25650911  0.79634445  0.70632248
   0.24349089  0.20365555  0.20632248
   0.75650911  0.20365555  0.20632248
   0.74349089  0.79634445  0.70632248
unknown system                          
           1
     8.309268    0.000000    0.000000
     0.000000    5.545989    0.000000
     0.000000    0.000000    7.051757
   P    S    Li
   2   8   6
Direct configuration=    30
   0.00000000  0.76169514  0.39956743
   0.50000000  0.23830486  0.89956743
   0.20344600  0.55764483  0.40757781
   0.29655400  0.44235517  0.90757781
   0.70344600  0.44235517  0.90757781
   0.79655400  0.55764483  0.40757781
   0.00000000 -0.00114085  0.18494447
   0.50000000  0.00114085  0.68494447
   0.00000000 -0.07120948  0.66326476
   0.50000000  0.07120948  0.16326476
   0.00000000  0.33836313  0.58823562
   0.50000000  0.66163687  0.08823562
   0.25916357  0.79190530  0.70568335
   0.24083643  0.20809470  0.20568335
   0.75916357  0.20809470  0.20568335
   0.74083643  0.79190530  0.70568335
unknown system                          
           1
     8.255183    0.000000    0.000000
     0.000000    5.531487    0.000000
     0.000000    0.000000    7.025468
   P    S    Li
   2   8   6
Direct configuration=    31
   0.00000000  0.76618506  0.40038828
   0.50000000  0.23381494  0.90038828
   0.20494292  0.55842973  0.41110423
   0.29505708  0.44157027  0.91110423
   0.70494292  0.44157027  0.91110423
   0.79505708  0.55842973  0.41110423
   0.00000000 -0.00220531  0.17824231
   0.50000000  0.00220531  0.67824231
   0.00000000 -0.06542413  0.66345370
   0.50000000  0.06542413  0.16345370
   0.00000000  0.33604366  0.58943643
   0.50000000  0.66395634  0.08943643
   0.26448976  0.78301540  0.70440271
   0.23551024  0.21698460  0.20440271
   0.76448976  0.21698460  0.20440271
   0.73551024  0.78301540  0.70440271
unknown system                          
           1
     8.147012    0.000000    0.000000
     0.000000    5.502482    0.000000
     0.000000    0.000000    6.972888
   P    S    Li
   2   8   6
Direct configuration=    32
   0.00000000  0.77518846  0.40203613
   0.50000000  0.22481154  0.90203613
   0.20795637  0.56000366  0.41818345
   0.29204363  0.43999634  0.91818345
   0.70795637  0.43999634  0.91818345
   0.79204363  0.56000366  0.41818345
   0.00000000 -0.00433980  0.16478781
   0.50000000  0.00433980  0.66478781
   0.00000000 -0.05382307  0.66383302
   0.50000000  0.05382307  0.16383302
   0.00000000  0.33139254  0.59184705
   0.50000000  0.66860746  0.09184705
   0.27521193  0.76518897  0.70183184
   0.22478807  0.23481103  0.20183184
   0.77521193  0.23481103  0.20183184
   0.72478807  0.76518897  0.70183184
unknown system                          
           1
     8.220912    0.000000    0.000000
     0.000000    5.522297    0.000000
     0.000000    0.000000    7.008809
   P    S    Li
   2   8   6
Direct configuration=    33
   0.00000000  0.76900513  0.40090187
   0.50000000  0.23099487  0.90090187
   0.20587032  0.55892272  0.41331062
   0.29412968  0.44107728  0.91331062
   0.70587032  0.44107728  0.91331062
   0.79412968  0.55892272  0.41331062
   0.00000000 -0.00287388  0.17404892
   0.50000000  0.00287388  0.67404892
   0.00000000 -0.06179042  0.66357193
   0.50000000  0.06179042  0.16357193
   0.00000000  0.33458683  0.59018775
   0.50000000  0.66541317  0.09018775
   0.26778954  0.77743177  0.70360145
   0.23221046  0.22256823  0.20360145
   0.76778954  0.22256823  0.20360145
   0.73221046  0.77743177  0.70360145
unknown system                          
           1
     8.156377    0.000000    0.000000
     0.000000    5.525897    0.000000
     0.000000    0.000000    6.998733
   P    S    Li
   2   8   6
Direct configuration=    34
   0.00000000  0.77003549  0.40033892
   0.50000000  0.22996451  0.90033892
   0.20576548  0.55992901  0.41433462
   0.29423452  0.44007099  0.91433462
   0.70576548  0.44007099  0.91433462
   0.79423452  0.55992901  0.41433462
   0.00000000 -0.00577470  0.17267488
   0.50000000  0.00577470  0.67267488
   0.00000000 -0.06130555  0.66411854
   0.50000000  0.06130555  0.16411854
   0.00000000  0.33520056  0.59057188
   0.50000000  0.66479944  0.09057188
   0.26872786  0.77431450  0.70308058
   0.23127214  0.22568550  0.20308058
   0.76872786  0.22568550  0.20308058
   0.73127214  0.77431450  0.70308058
unknown system                          
           1
     8.070291    0.000000    0.000000
     0.000000    5.530698    0.000000
     0.000000    0.000000    6.985292
   P    S    Li
   2   8   6
Direct configuration=    35
   0.00000000  0.77140906  0.39958689
   0.50000000  0.22859094  0.89958689
   0.20562452  0.56127048  0.41570255
   0.29437548  0.43872952  0.91570255
   0.70562452  0.43872952  0.91570255
   0.79437548  0.56127048  0.41570255
   0.00000000 -0.00964175  0.17083933
   0.50000000  0.00964175  0.67083933
   0.00000000 -0.06065917  0.66484875
   0.50000000  0.06065917  0.16484875
   0.00000000  0.33601871  0.59108502
   0.50000000  0.66398129  0.09108502
   0.26998945  0.77015893  0.70238476
   0.23001055  0.22984107  0.20238476
   0.76998945  0.22984107  0.20238476
   0.73001055  0.77015893  0.70238476
unknown system                          
           1
     8.026003    0.000000    0.000000
     0.000000    5.567209    0.000000
     0.000000    0.000000    6.994480
   P    S    Li
   2   8   6
Direct configuration=    36
   0.00000000  0.77289935  0.40016986
   0.50000000  0.22710065  0.90016986
   0.20675954  0.56126035  0.41590763
   0.29324046  0.43873965  0.91590763
   0.70675954  0.43873965  0.91590763
   0.79324046  0.56126035  0.41590763
   0.00000000 -0.01341602  0.16917126
   0.50000000  0.01341602  0.66917126
   0.00000000 -0.06101896  0.66536665
   0.50000000  0.06101896  0.16536665
   0.00000000  0.33768043  0.59184495
   0.50000000  0.66231957  0.09184495
   0.27006372  0.76734761  0.70208331
   0.22993628  0.23265239  0.20208331
   0.77006372  0.23265239  0.20208331
   0.72993628  0.76734761  0.70208331