  16  16   0   0
  0.1775661E+02  0.7816896E-09  0.6122256E-09  0.5936551E-09  0.5000000E-15
  1.000000000000000E-004
  CAR 
 unknown system                          
     11.20437983    -43.92431705  301      2.79725355      1.00000000
    -43.924  0.0000E+00  0.0000E+00
    -43.741  0.0000E+00  0.0000E+00
    -43.557  0.0000E+00  0.0000E+00
    -43.373  0.0000E+00  0.0000E+00
    -43.189  0.0000E+00  0.0000E+00
    -43.006  0.0000E+00  0.0000E+00
    -42.822  0.0000E+00  0.0000E+00
    -42.638  0.0000E+00  0.0000E+00
    -42.454  0.0000E+00  0.0000E+00
    -42.270  0.0000E+00  0.0000E+00
    -42.087  0.0000E+00  0.0000E+00
    -41.903  0.0000E+00  0.0000E+00
    -41.719  0.0000E+00  0.0000E+00
    -41.535  0.0000E+00  0.0000E+00
    -41.352  0.0000E+00  0.4000E-01
    -41.168  0.0000E+00  0.4000E-01
    -40.984  0.0000E+00  0.4000E-01
    -40.800  0.0000E+00  0.4000E-01
    -40.617  0.0000E+00  0.1200E+00
    -40.433  0.0000E+00  0.1200E+00
    -40.249  0.0000E+00  0.1200E+00
    -40.065  0.0000E+00  0.1200E+00
    -39.882  0.0000E+00  0.1200E+00
    -39.698  0.0000E+00  0.1200E+00
    -39.514  0.0000E+00  0.1200E+00
    -39.330  0.0000E+00  0.1200E+00
    -39.146  0.0000E+00  0.1200E+00
    -38.963  0.0000E+00  0.1200E+00
    -38.779  0.0000E+00  0.1200E+00
    -38.595  0.0000E+00  0.1200E+00
    -38.411  0.0000E+00  0.1200E+00
    -38.228  0.0000E+00  0.1200E+00
    -38.044  0.0000E+00  0.1200E+00
    -37.860  0.0000E+00  0.1200E+00
    -37.676  0.0000E+00  0.1200E+00
    -37.493  0.0000E+00  0.1200E+00
    -37.309  0.0000E+00  0.1200E+00
    -37.125  0.0000E+00  0.1200E+00
    -36.941  0.0000E+00  0.1200E+00
    -36.758  0.0000E+00  0.1200E+00
    -36.574  0.0000E+00  0.1200E+00
    -36.390  0.0000E+00  0.1200E+00
    -36.206  0.0000E+00  0.1200E+00
    -36.023  0.0000E+00  0.1200E+00
    -35.839  0.0000E+00  0.1200E+00
    -35.655  0.0000E+00  0.1200E+00
    -35.471  0.0000E+00  0.1200E+00
    -35.287  0.0000E+00  0.1200E+00
    -35.104  0.0000E+00  0.1200E+00
    -34.920  0.0000E+00  0.1200E+00
    -34.736  0.0000E+00  0.1200E+00
    -34.552  0.0000E+00  0.1200E+00
    -34.369  0.0000E+00  0.1200E+00
    -34.185  0.0000E+00  0.1200E+00
    -34.001  0.0000E+00  0.1200E+00
    -33.817  0.0000E+00  0.1200E+00
    -33.634  0.0000E+00  0.1200E+00
    -33.450  0.0000E+00  0.1200E+00
    -33.266  0.0000E+00  0.1200E+00
    -33.082  0.0000E+00  0.1200E+00
    -32.899  0.0000E+00  0.1200E+00
    -32.715  0.0000E+00  0.1200E+00
    -32.531  0.0000E+00  0.1200E+00
    -32.347  0.0000E+00  0.1200E+00
    -32.164  0.0000E+00  0.1200E+00
    -31.980  0.0000E+00  0.1200E+00
    -31.796  0.0000E+00  0.1200E+00
    -31.612  0.0000E+00  0.1200E+00
    -31.428  0.0000E+00  0.1200E+00
    -31.245  0.0000E+00  0.1200E+00
    -31.061  0.0000E+00  0.1200E+00
    -30.877  0.0000E+00  0.1200E+00
    -30.693  0.0000E+00  0.1200E+00
    -30.510  0.0000E+00  0.1200E+00
    -30.326  0.0000E+00  0.1200E+00
    -30.142  0.0000E+00  0.1200E+00
    -29.958  0.0000E+00  0.1200E+00
    -29.775  0.0000E+00  0.1200E+00
    -29.591  0.0000E+00  0.1200E+00
    -29.407  0.0000E+00  0.1200E+00
    -29.223  0.0000E+00  0.1200E+00
    -29.040  0.0000E+00  0.1200E+00
    -28.856  0.0000E+00  0.1200E+00
    -28.672  0.0000E+00  0.1200E+00
    -28.488  0.0000E+00  0.1200E+00
    -28.305  0.0000E+00  0.1200E+00
    -28.121  0.0000E+00  0.1200E+00
    -27.937  0.0000E+00  0.1200E+00
    -27.753  0.0000E+00  0.1200E+00
    -27.569  0.0000E+00  0.1200E+00
    -27.386  0.0000E+00  0.1200E+00
    -27.202  0.0000E+00  0.1200E+00
    -27.018  0.0000E+00  0.1200E+00
    -26.834  0.0000E+00  0.1200E+00
    -26.651  0.0000E+00  0.1200E+00
    -26.467  0.0000E+00  0.1200E+00
    -26.283  0.0000E+00  0.1200E+00
    -26.099  0.0000E+00  0.1200E+00
    -25.916  0.0000E+00  0.1200E+00
    -25.732  0.0000E+00  0.1200E+00
    -25.548  0.0000E+00  0.1200E+00
    -25.364  0.0000E+00  0.1200E+00
    -25.181  0.0000E+00  0.1200E+00
    -24.997  0.0000E+00  0.1200E+00
    -24.813  0.0000E+00  0.1200E+00
    -24.629  0.0000E+00  0.1200E+00
    -24.446  0.0000E+00  0.1200E+00
    -24.262  0.0000E+00  0.1200E+00
    -24.078  0.0000E+00  0.1200E+00
    -23.894  0.0000E+00  0.1200E+00
    -23.710  0.0000E+00  0.1200E+00
    -23.527  0.0000E+00  0.1200E+00
    -23.343  0.0000E+00  0.1200E+00
    -23.159  0.0000E+00  0.1200E+00
    -22.975  0.0000E+00  0.1200E+00
    -22.792  0.0000E+00  0.1200E+00
    -22.608  0.0000E+00  0.1200E+00
    -22.424  0.0000E+00  0.1200E+00
    -22.240  0.0000E+00  0.1200E+00
    -22.057  0.0000E+00  0.1200E+00
    -21.873  0.0000E+00  0.1200E+00
    -21.689  0.0000E+00  0.1200E+00
    -21.505  0.0000E+00  0.1200E+00
    -21.322  0.0000E+00  0.1200E+00
    -21.138  0.0000E+00  0.1200E+00
    -20.954  0.0000E+00  0.1200E+00
    -20.770  0.0000E+00  0.1200E+00
    -20.587  0.0000E+00  0.1200E+00
    -20.403  0.0000E+00  0.1200E+00
    -20.219  0.0000E+00  0.1200E+00
    -20.035  0.0000E+00  0.1200E+00
    -19.851  0.0000E+00  0.1200E+00
    -19.668  0.0000E+00  0.1200E+00
    -19.484  0.0000E+00  0.1200E+00
    -19.300  0.0000E+00  0.1200E+00
    -19.116  0.0000E+00  0.1200E+00
    -18.933  0.0000E+00  0.1200E+00
    -18.749  0.0000E+00  0.1200E+00
    -18.565  0.0000E+00  0.1200E+00
    -18.381  0.0000E+00  0.1200E+00
    -18.198  0.0000E+00  0.1200E+00
    -18.014  0.0000E+00  0.1200E+00
    -17.830  0.0000E+00  0.1200E+00
    -17.646  0.0000E+00  0.1200E+00
    -17.463  0.0000E+00  0.1200E+00
    -17.279  0.0000E+00  0.1200E+00
    -17.095  0.0000E+00  0.1200E+00
    -16.911  0.0000E+00  0.1200E+00
    -16.727  0.0000E+00  0.1200E+00
    -16.544  0.0000E+00  0.1200E+00
    -16.360  0.0000E+00  0.1200E+00
    -16.176  0.0000E+00  0.1200E+00
    -15.992  0.0000E+00  0.1200E+00
    -15.809  0.0000E+00  0.1200E+00
    -15.625  0.0000E+00  0.1200E+00
    -15.441  0.0000E+00  0.1200E+00
    -15.257  0.0000E+00  0.1200E+00
    -15.074  0.0000E+00  0.1200E+00
    -14.890  0.0000E+00  0.1200E+00
    -14.706  0.0000E+00  0.1200E+00
    -14.522  0.0000E+00  0.1200E+00
    -14.339  0.0000E+00  0.1200E+00
    -14.155  0.0000E+00  0.1200E+00
    -13.971  0.0000E+00  0.1200E+00
    -13.787  0.0000E+00  0.1200E+00
    -13.604  0.0000E+00  0.1200E+00
    -13.420  0.0000E+00  0.1200E+00
    -13.236  0.0000E+00  0.1200E+00
    -13.052  0.0000E+00  0.1200E+00
    -12.868  0.0000E+00  0.1200E+00
    -12.685  0.0000E+00  0.1200E+00
    -12.501  0.0000E+00  0.1200E+00
    -12.317  0.1384E+00  0.1301E+00
    -12.133  0.0000E+00  0.1600E+00
    -11.950  0.0000E+00  0.1600E+00
    -11.766  0.0000E+00  0.1600E+00
    -11.582  0.0000E+00  0.1600E+00
    -11.398  0.0000E+00  0.1600E+00
    -11.215  0.0000E+00  0.1600E+00
    -11.031  0.0000E+00  0.1600E+00
    -10.847  0.0000E+00  0.1600E+00
    -10.663  0.0000E+00  0.1600E+00
    -10.480  0.0000E+00  0.1600E+00
    -10.296  0.0000E+00  0.1600E+00
    -10.112  0.0000E+00  0.1600E+00
     -9.928  0.0000E+00  0.1600E+00
     -9.745  0.0000E+00  0.1600E+00
     -9.561  0.0000E+00  0.1600E+00
     -9.377  0.9861E-01  0.1953E+00
     -9.193  0.2023E+00  0.2297E+00
     -9.009  0.1624E+00  0.2703E+00
     -8.826  0.0000E+00  0.2800E+00
     -8.642  0.0000E+00  0.2800E+00
     -8.458  0.0000E+00  0.2800E+00
     -8.274  0.0000E+00  0.2800E+00
     -8.091  0.0000E+00  0.2800E+00
     -7.907  0.0000E+00  0.2800E+00
     -7.723  0.0000E+00  0.2800E+00
     -7.539  0.0000E+00  0.2800E+00
     -7.356  0.0000E+00  0.2800E+00
     -7.172  0.0000E+00  0.2800E+00
     -6.988  0.0000E+00  0.2800E+00
     -6.804  0.0000E+00  0.2800E+00
     -6.621  0.0000E+00  0.2800E+00
     -6.437  0.0000E+00  0.2800E+00
     -6.253  0.0000E+00  0.2800E+00
     -6.069  0.0000E+00  0.2800E+00
     -5.886  0.0000E+00  0.2800E+00
     -5.702  0.0000E+00  0.2800E+00
     -5.518  0.0000E+00  0.2800E+00
     -5.334  0.1651E-01  0.2813E+00
     -5.150  0.4755E-01  0.2876E+00
     -4.967  0.7697E-01  0.2979E+00
     -4.783  0.9961E-01  0.3167E+00
     -4.599  0.0000E+00  0.3200E+00
     -4.415  0.0000E+00  0.3200E+00
     -4.232  0.0000E+00  0.3200E+00
     -4.048  0.0000E+00  0.3200E+00
     -3.864  0.0000E+00  0.3200E+00
     -3.680  0.0000E+00  0.3200E+00
     -3.497  0.0000E+00  0.3200E+00
     -3.313  0.0000E+00  0.3200E+00
     -3.129  0.0000E+00  0.3200E+00
     -2.945  0.0000E+00  0.3200E+00
     -2.762  0.0000E+00  0.3200E+00
     -2.578  0.0000E+00  0.3200E+00
     -2.394  0.8535E-01  0.3308E+00
     -2.210  0.1813E+00  0.3584E+00
     -2.027  0.2120E+00  0.3907E+00
     -1.843  0.1823E+00  0.4125E+00
     -1.659  0.2548E-01  0.4394E+00
     -1.475  0.0000E+00  0.4400E+00
     -1.291  0.0000E+00  0.4400E+00
     -1.108  0.0000E+00  0.4400E+00
     -0.924  0.0000E+00  0.4400E+00
     -0.740  0.0000E+00  0.4400E+00
     -0.556  0.0000E+00  0.4400E+00
     -0.373  0.0000E+00  0.4400E+00
     -0.189  0.0000E+00  0.4400E+00
     -0.005  0.1354E+00  0.4588E+00
      0.179  0.6899E-01  0.4810E+00
      0.362  0.1361E+00  0.5008E+00
      0.546  0.9052E-01  0.5230E+00
      0.730  0.8824E-01  0.5482E+00
      0.914  0.3243E-01  0.5593E+00
      1.097  0.1298E+00  0.5811E+00
      1.281  0.8000E-01  0.6008E+00
      1.465  0.1643E+00  0.6134E+00
      1.649  0.5181E-01  0.6389E+00
      1.833  0.3178E-01  0.6615E+00
      2.016  0.7657E-01  0.6820E+00
      2.200  0.1121E+00  0.7037E+00
      2.384  0.0000E+00  0.7200E+00
      2.568  0.1207E+00  0.7454E+00
      2.751  0.0000E+00  0.7600E+00
      2.935  0.0000E+00  0.7600E+00
      3.119  0.0000E+00  0.7600E+00
      3.303  0.0000E+00  0.7600E+00
      3.486  0.0000E+00  0.7600E+00
      3.670  0.0000E+00  0.7600E+00
      3.854  0.0000E+00  0.7600E+00
      4.038  0.0000E+00  0.7600E+00
      4.221  0.0000E+00  0.7600E+00
      4.405  0.0000E+00  0.7600E+00
      4.589  0.0000E+00  0.7600E+00
      4.773  0.0000E+00  0.7600E+00
      4.956  0.0000E+00  0.7600E+00
      5.140  0.0000E+00  0.7600E+00
      5.324  0.0000E+00  0.7600E+00
      5.508  0.2342E-01  0.7621E+00
      5.692  0.4812E-01  0.7711E+00
      5.875  0.9623E-01  0.7838E+00
      6.059  0.4126E-01  0.7932E+00
      6.243  0.0000E+00  0.8000E+00
      6.427  0.0000E+00  0.8000E+00
      6.610  0.1762E+00  0.8150E+00
      6.794  0.6581E-01  0.8390E+00
      6.978  0.7791E-01  0.8483E+00
      7.162  0.1436E+00  0.8726E+00
      7.345  0.1004E+00  0.8921E+00
      7.529  0.1292E+00  0.9154E+00
      7.713  0.0000E+00  0.9200E+00
      7.897  0.0000E+00  0.9200E+00
      8.080  0.0000E+00  0.9200E+00
      8.264  0.1932E-01  0.9220E+00
      8.448  0.5580E-01  0.9293E+00
      8.632  0.1802E+00  0.9467E+00
      8.815  0.0000E+00  0.9600E+00
      8.999  0.0000E+00  0.9600E+00
      9.183  0.0000E+00  0.9600E+00
      9.367  0.0000E+00  0.9600E+00
      9.551  0.0000E+00  0.9600E+00
      9.734  0.0000E+00  0.9600E+00
      9.918  0.0000E+00  0.9600E+00
     10.102  0.0000E+00  0.9600E+00
     10.286  0.0000E+00  0.9600E+00
     10.469  0.0000E+00  0.9600E+00
     10.653  0.0000E+00  0.9600E+00
     10.837  0.0000E+00  0.9600E+00
     11.021  0.0000E+00  0.9600E+00
     11.204  0.0000E+00  0.9600E+00
