       N       E                     dE             d eps       ncg     rms          rms(c)
DAV:   1     0.494708230649E+03    0.49471E+03   -0.28288E+04   768   0.130E+03
DAV:   2    -0.124260716797E+02   -0.50713E+03   -0.48430E+03   912   0.309E+02
DAV:   3    -0.721799256995E+02   -0.59754E+02   -0.59328E+02  1072   0.957E+01
DAV:   4    -0.786532005677E+02   -0.64733E+01   -0.64496E+01  1424   0.303E+01
DAV:   5    -0.794541224582E+02   -0.80092E+00   -0.80077E+00  1136   0.696E+00    0.230E+01
RMM:   6    -0.773505529110E+02    0.21036E+01   -0.63829E+00   805   0.579E+00    0.152E+01
RMM:   7    -0.769264752543E+02    0.42408E+00   -0.25751E+00   812   0.410E+00    0.408E+00
RMM:   8    -0.768512282433E+02    0.75247E-01   -0.23685E-01   957   0.153E+00    0.576E-01
RMM:   9    -0.768448273104E+02    0.64009E-02   -0.32225E-02   985   0.574E-01    0.235E-01
RMM:  10    -0.768451123706E+02   -0.28506E-03   -0.70037E-03  1192   0.243E-01    0.143E-01
RMM:  11    -0.768454544380E+02   -0.34207E-03   -0.33984E-03  1097   0.144E-01    0.490E-02
RMM:  12    -0.768455866566E+02   -0.13222E-03   -0.15872E-03  1097   0.106E-01    0.234E-02
RMM:  13    -0.768456725934E+02   -0.85937E-04   -0.94128E-04   805   0.774E-02    0.164E-02
RMM:  14    -0.768457115283E+02   -0.38935E-04   -0.43139E-04   807   0.650E-02    0.417E-03
RMM:  15    -0.768457362763E+02   -0.24748E-04   -0.29861E-04   797   0.580E-02    0.228E-03
RMM:  16    -0.768457490462E+02   -0.12770E-04   -0.15621E-04   688   0.497E-02
   1 F= -.76845749E+02 E0= -.76845749E+02  d E =-.768457E+02
       N       E                     dE             d eps       ncg     rms          rms(c)
DAV:   1    -0.768572100670E+02   -0.11474E-01   -0.11579E+00   896   0.483E+00    0.732E-01
RMM:   2    -0.768594027997E+02   -0.21927E-02   -0.59859E-02   953   0.103E+00    0.242E-01
RMM:   3    -0.768582068458E+02    0.11960E-02   -0.50159E-03  1159   0.290E-01    0.185E-01
RMM:   4    -0.768578825046E+02    0.32434E-03   -0.16260E-03  1029   0.131E-01    0.630E-02
RMM:   5    -0.768579086371E+02   -0.26132E-04   -0.50737E-04  1097   0.740E-02    0.338E-02
RMM:   6    -0.768579240878E+02   -0.15451E-04   -0.25211E-04  1001   0.512E-02    0.102E-02
RMM:   7    -0.768579173860E+02    0.67018E-05   -0.21202E-05   586   0.388E-02
   2 F= -.76857917E+02 E0= -.76857917E+02  d E =-.121683E-01
       N       E                     dE             d eps       ncg     rms          rms(c)
DAV:   1    -0.768612559840E+02   -0.33319E-02   -0.22460E+00   864   0.674E+00    0.102E+00
RMM:   2    -0.768651542467E+02   -0.38983E-02   -0.11267E-01   955   0.142E+00    0.334E-01
RMM:   3    -0.768630172114E+02    0.21370E-02   -0.99268E-03  1176   0.406E-01    0.258E-01
RMM:   4    -0.768624293613E+02    0.58785E-03   -0.32320E-03  1063   0.185E-01    0.902E-02
RMM:   5    -0.768624869419E+02   -0.57581E-04   -0.10988E-03  1147   0.107E-01    0.471E-02
RMM:   6    -0.768625223350E+02   -0.35393E-04   -0.55044E-04  1097   0.735E-02    0.143E-02
RMM:   7    -0.768625337766E+02   -0.11442E-04   -0.28016E-04  1030   0.540E-02    0.118E-02
RMM:   8    -0.768625301675E+02    0.36091E-05   -0.17630E-08   499   0.397E-02
   3 F= -.76862530E+02 E0= -.76862530E+02  d E =-.167811E-01
       N       E                     dE             d eps       ncg     rms          rms(c)
DAV:   1    -0.768649061167E+02   -0.23723E-02   -0.70444E-01   880   0.386E+00    0.563E-01
RMM:   2    -0.768680244313E+02   -0.31183E-02   -0.35470E-02   962   0.814E-01    0.140E-01
RMM:   3    -0.768677963718E+02    0.22806E-03   -0.31133E-03  1193   0.234E-01    0.144E-01
RMM:   4    -0.768677242628E+02    0.72109E-04   -0.11347E-03  1135   0.106E-01    0.618E-02
RMM:   5    -0.768677499913E+02   -0.25729E-04   -0.42208E-04  1090   0.683E-02    0.227E-02
RMM:   6    -0.768677548217E+02   -0.48304E-05   -0.83110E-05   622   0.492E-02
   4 F= -.76867755E+02 E0= -.76867755E+02  d E =-.522465E-02
       N       E                     dE             d eps       ncg     rms          rms(c)
DAV:   1    -0.768677166425E+02    0.33349E-04   -0.19275E-01   880   0.202E+00    0.295E-01
RMM:   2    -0.768685627726E+02   -0.84613E-03   -0.96088E-03   962   0.429E-01    0.715E-02
RMM:   3    -0.768685381320E+02    0.24641E-04   -0.10153E-03  1199   0.131E-01    0.724E-02
RMM:   4    -0.768685268133E+02    0.11319E-04   -0.41180E-04  1075   0.640E-02    0.288E-02
RMM:   5    -0.768685232394E+02    0.35739E-05   -0.67341E-06   512   0.432E-02
   5 F= -.76868523E+02 E0= -.76868523E+02  d E =-.599307E-02
       N       E                     dE             d eps       ncg     rms          rms(c)
DAV:   1    -0.768696886456E+02   -0.11618E-02   -0.29548E-02   912   0.718E-01    0.136E-01
RMM:   2    -0.768696296683E+02    0.58977E-04   -0.17596E-03   962   0.170E-01    0.596E-02
RMM:   3    -0.768695915214E+02    0.38147E-04   -0.30229E-04  1030   0.651E-02    0.374E-02
RMM:   4    -0.768695776679E+02    0.13853E-04   -0.24705E-05   634   0.391E-02
   6 F= -.76869578E+02 E0= -.76869578E+02  d E =-.105443E-02
       N       E                     dE             d eps       ncg     rms          rms(c)
DAV:   1    -0.768711180169E+02   -0.15265E-02   -0.24733E-01   832   0.209E+00    0.386E-01
RMM:   2    -0.768706407229E+02    0.47729E-03   -0.14902E-02   962   0.492E-01    0.173E-01
RMM:   3    -0.768702792632E+02    0.36146E-03   -0.22016E-03  1123   0.170E-01    0.113E-01
RMM:   4    -0.768702075520E+02    0.71711E-04   -0.66173E-04  1050   0.845E-02    0.423E-02
RMM:   5    -0.768702028367E+02    0.47153E-05   -0.10129E-04   716   0.503E-02
   7 F= -.76870203E+02 E0= -.76870203E+02  d E =-.167960E-02
       N       E                     dE             d eps       ncg     rms          rms(c)
DAV:   1    -0.768705162185E+02   -0.30867E-03   -0.21078E-02   888   0.603E-01    0.118E-01
RMM:   2    -0.768704869734E+02    0.29245E-04   -0.13850E-03   794   0.139E-01    0.510E-02
RMM:   3    -0.768704272495E+02    0.59724E-04   -0.11906E-04   869   0.416E-02    0.308E-02
RMM:   4    -0.768704198153E+02    0.74341E-05   -0.30564E-05   456   0.211E-02
   8 F= -.76870420E+02 E0= -.76870420E+02  d E =-.189658E-02
       N       E                     dE             d eps       ncg     rms          rms(c)
DAV:   1    -0.768707889465E+02   -0.36170E-03   -0.57825E-02   800   0.106E+00    0.149E-01
RMM:   2    -0.768709892109E+02   -0.20026E-03   -0.25510E-03   962   0.212E-01    0.463E-02
RMM:   3    -0.768709677150E+02    0.21496E-04   -0.21185E-04   995   0.635E-02    0.364E-02
RMM:   4    -0.768709562550E+02    0.11460E-04    0.74671E-06   495   0.317E-02
   9 F= -.76870956E+02 E0= -.76870956E+02  d E =-.536440E-03
       N       E                     dE             d eps       ncg     rms          rms(c)
DAV:   1    -0.768705467791E+02    0.42094E-03   -0.13062E-01   768   0.160E+00    0.225E-01
RMM:   2    -0.768710195886E+02   -0.47281E-03   -0.60112E-03   963   0.323E-01    0.729E-02
RMM:   3    -0.768709965181E+02    0.23070E-04   -0.67392E-04  1141   0.103E-01    0.573E-02
RMM:   4    -0.768709943652E+02    0.21529E-05   -0.24344E-04   935   0.504E-02    0.142E-02
RMM:   5    -0.768709908993E+02    0.34659E-05    0.86282E-06   470   0.339E-02
  10 F= -.76870991E+02 E0= -.76870991E+02  d E =-.571084E-03
       N       E                     dE             d eps       ncg     rms          rms(c)
DAV:   1    -0.768715953228E+02   -0.60096E-03   -0.71844E-02   768   0.121E+00    0.264E-01
RMM:   2    -0.768717537573E+02   -0.15843E-03   -0.45524E-03   959   0.280E-01    0.940E-02
RMM:   3    -0.768716702359E+02    0.83521E-04   -0.52195E-04  1112   0.910E-02    0.660E-02
RMM:   4    -0.768716530396E+02    0.17196E-04   -0.20473E-04   901   0.482E-02    0.139E-02
RMM:   5    -0.768716492642E+02    0.37755E-05    0.12687E-05   466   0.307E-02
  11 F= -.76871649E+02 E0= -.76871649E+02  d E =-.658365E-03
       N       E                     dE             d eps       ncg     rms          rms(c)
DAV:   1    -0.768716654166E+02   -0.12377E-04   -0.33483E-04  1104   0.655E-02    0.155E-02
RMM:   2    -0.768716664660E+02   -0.10495E-05   -0.19972E-05   421   0.198E-02
  12 F= -.76871666E+02 E0= -.76871666E+02  d E =-.675567E-03
       N       E                     dE             d eps       ncg     rms          rms(c)
DAV:   1    -0.768719864109E+02   -0.32099E-03   -0.76409E-02   768   0.127E+00    0.151E-01
RMM:   2    -0.768721709803E+02   -0.18457E-03   -0.29020E-03   968   0.235E-01    0.456E-02
RMM:   3    -0.768721381419E+02    0.32838E-04   -0.23037E-04   999   0.681E-02    0.369E-02
RMM:   4    -0.768721275144E+02    0.10628E-04   -0.10352E-04   823   0.361E-02
  13 F= -.76872128E+02 E0= -.76872128E+02  d E =-.461048E-03
       N       E                     dE             d eps       ncg     rms          rms(c)
DAV:   1    -0.768720494297E+02    0.88712E-04   -0.11201E-01   768   0.153E+00    0.179E-01
RMM:   2    -0.768723275211E+02   -0.27809E-03   -0.43283E-03   968   0.287E-01    0.552E-02
RMM:   3    -0.768722914066E+02    0.36114E-04   -0.41422E-04  1089   0.871E-02    0.455E-02
RMM:   4    -0.768722780352E+02    0.13371E-04   -0.17200E-04   916   0.448E-02
  14 F= -.76872278E+02 E0= -.76872278E+02  d E =-.611569E-03
       N       E                     dE             d eps       ncg     rms          rms(c)
DAV:   1    -0.768722894199E+02    0.19867E-05   -0.12458E-01   768   0.158E+00    0.137E-01
RMM:   2    -0.768726317969E+02   -0.34238E-03   -0.42012E-03   972   0.275E-01    0.516E-02
RMM:   3    -0.768726242297E+02    0.75672E-05   -0.47898E-04  1119   0.903E-02    0.426E-02
RMM:   4    -0.768726216250E+02    0.26047E-05   -0.16127E-04   867   0.449E-02
  15 F= -.76872622E+02 E0= -.76872622E+02  d E =-.343590E-03
       N       E                     dE             d eps       ncg     rms          rms(c)
DAV:   1    -0.768723318045E+02    0.29243E-03   -0.12715E-01   768   0.160E+00    0.136E-01
RMM:   2    -0.768726843191E+02   -0.35251E-03   -0.43147E-03   971   0.278E-01    0.512E-02
RMM:   3    -0.768726807493E+02    0.35699E-05   -0.52612E-04  1139   0.937E-02    0.428E-02
RMM:   4    -0.768726784277E+02    0.23215E-05   -0.17053E-04   878   0.465E-02
  16 F= -.76872678E+02 E0= -.76872678E+02  d E =-.400393E-03
       N       E                     dE             d eps       ncg     rms          rms(c)
DAV:   1    -0.768727725098E+02   -0.91761E-04   -0.60958E-02   768   0.111E+00    0.665E-02
RMM:   2    -0.768729284895E+02   -0.15598E-03   -0.19072E-03   995   0.184E-01    0.300E-02
RMM:   3    -0.768729369507E+02   -0.84612E-05   -0.24321E-04   940   0.667E-02    0.246E-02
RMM:   4    -0.768729312852E+02    0.56655E-05   -0.38065E-05   604   0.406E-02
  17 F= -.76872931E+02 E0= -.76872931E+02  d E =-.252857E-03
       N       E                     dE             d eps       ncg     rms          rms(c)
DAV:   1    -0.768719324316E+02    0.10045E-02   -0.54787E-01   768   0.332E+00    0.204E-01
RMM:   2    -0.768732495335E+02   -0.13171E-02   -0.16056E-02   994   0.537E-01    0.853E-02
RMM:   3    -0.768733262418E+02   -0.76708E-04   -0.21228E-03  1244   0.180E-01    0.738E-02
RMM:   4    -0.768733223274E+02    0.39144E-05   -0.67943E-04  1121   0.808E-02    0.282E-02
RMM:   5    -0.768733322139E+02   -0.98865E-05   -0.15391E-04   708   0.542E-02
  18 F= -.76873332E+02 E0= -.76873332E+02  d E =-.653786E-03
       N       E                     dE             d eps       ncg     rms          rms(c)
DAV:   1    -0.768734988790E+02   -0.17655E-03   -0.71485E-03   960   0.367E-01    0.932E-02
RMM:   2    -0.768734883758E+02    0.10503E-04   -0.50373E-04   982   0.920E-02    0.286E-02
RMM:   3    -0.768734761770E+02    0.12199E-04   -0.82289E-05   818   0.356E-02
  19 F= -.76873476E+02 E0= -.76873476E+02  d E =-.143963E-03
       N       E                     dE             d eps       ncg     rms          rms(c)
DAV:   1    -0.768735002944E+02   -0.11919E-04   -0.66007E-03   880   0.362E-01    0.895E-02
RMM:   2    -0.768734868911E+02    0.13403E-04   -0.50028E-04   979   0.915E-02    0.324E-02
RMM:   3    -0.768734726396E+02    0.14252E-04   -0.77018E-05   675   0.330E-02
  20 F= -.76873473E+02 E0= -.76873473E+02  d E =-.140426E-03
