 vasp.5.4.4.18Apr17-6-g9f103f2a35 (build Feb 28 2020 14:15:47) complex          
  
 executed on             LinuxIFC date 2022.08.07  07:37:16
 running on   64 total cores
 distrk:  each k-point on   64 cores,    1 groups
 distr:  one band on NCORES_PER_BAND=  16 cores,    4 groups


--------------------------------------------------------------------------------------------------------


 INCAR:
 POTCAR:    PAW P 26Mar2009                       
 POTCAR:    PAW S 27Mar2009                       
 POTCAR:    PAW Li_sv 10Sep2004                   
 POTCAR:    PAW P 26Mar2009                       
   VRHFIN =P : s2p3                                                             
   LEXCH  = CA                                                                  
   EATOM  =   176.5121 eV,   12.9733 Ry                                         
                                                                                
   TITEL  = PAW P 26Mar2009                                                     
   LULTRA =        F    use ultrasoft PP ?                                      
   IUNSCR =        1    unscreen: 0-lin 1-nonlin 2-no                           
   RPACOR =    1.500    partial core radius                                     
   POMASS =   30.974; ZVAL   =    5.000    mass and valenz                      
   RCORE  =    1.900    outmost cutoff radius                                   
   RWIGS  =    2.330; RWIGS  =    1.233    wigner-seitz radius (au A)           
   ENMAX  =  255.155; ENMIN  =  191.366 eV                                      
   ICORE  =        2    local potential                                         
   LCOR   =        T    correct aug charges                                     
   LPAW   =        T    paw PP                                                  
   EAUG   =  342.924                                                            
   DEXC   =    0.000                                                            
   RMAX   =    1.935    core radius for proj-oper                               
   RAUG   =    1.300    factor for augmentation sphere                          
   RDEP   =    1.931    radius for radial grids                                 
   RDEPT  =    1.780    core radius for aug-charge                              
                                                                                
   Atomic configuration                                                         
    6 entries                                                                   
     n  l   j            E        occ.                                          
     1  0  0.50     -2072.7761   2.0000                                         
     2  0  0.50      -172.9483   2.0000                                         
     2  1  1.50      -124.4644   6.0000                                         
     3  0  0.50       -14.0086   2.0000                                         
     3  1  0.50        -5.6037   3.0000                                         
     3  2  1.50        -6.8029   0.0000                                         
   Description                                                                  
     l       E           TYP  RCUT    TYP  RCUT                                 
     0    -14.0086211     23  1.900                                             
     0    -11.8189335     23  1.900                                             
     1     -5.6037292     23  1.900                                             
     1     -0.3527308     23  1.900                                             
     2     -6.8029130     23  1.900                                             
  local pseudopotential read in
  partial core-charges read in
  partial kinetic energy density read in
  atomic valenz-charges read in
  non local Contribution for L=           0  read in
    real space projection operators read in
  non local Contribution for L=           0  read in
    real space projection operators read in
  non local Contribution for L=           1  read in
    real space projection operators read in
  non local Contribution for L=           1  read in
    real space projection operators read in
    PAW grid and wavefunctions read in
 
   number of l-projection  operators is LMAX  =           4
   number of lm-projection operators is LMMAX =           8
 
 POTCAR:    PAW S 27Mar2009                       
   VRHFIN =S : s2p4                                                             
   LEXCH  = CA                                                                  
   EATOM  =   277.3745 eV,   20.3864 Ry                                         
                                                                                
   TITEL  = PAW S 27Mar2009                                                     
   LULTRA =        F    use ultrasoft PP ?                                      
   IUNSCR =        1    unscreen: 0-lin 1-nonlin 2-no                           
   RPACOR =    1.500    partial core radius                                     
   POMASS =   32.066; ZVAL   =    6.000    mass and valenz                      
   RCORE  =    1.900    outmost cutoff radius                                   
   RWIGS  =    2.200; RWIGS  =    1.164    wigner-seitz radius (au A)           
   ENMAX  =  258.602; ENMIN  =  193.952 eV                                      
   ICORE  =        2    local potential                                         
   LCOR   =        T    correct aug charges                                     
   LPAW   =        T    paw PP                                                  
   EAUG   =  335.092                                                            
   DEXC   =    0.000                                                            
   RMAX   =    1.942    core radius for proj-oper                               
   RAUG   =    1.300    factor for augmentation sphere                          
   RDEP   =    1.954    radius for radial grids                                 
   RDEPT  =    1.744    core radius for aug-charge                              
                                                                                
   Atomic configuration                                                         
    6 entries                                                                   
     n  l   j            E        occ.                                          
     1  0  0.50     -2393.1495   2.0000                                         
     2  0  0.50      -210.5411   2.0000                                         
     2  1  1.50      -156.4410   6.0000                                         
     3  0  0.50       -17.2664   2.0000                                         
     3  1  0.50        -7.1129   4.0000                                         
     3  2  1.50        -8.1635   0.0000                                         
   Description                                                                  
     l       E           TYP  RCUT    TYP  RCUT                                 
     0    -17.2664422     23  1.900                                             
     0    -15.8420823     23  1.900                                             
     1     -7.1129072     23  1.900                                             
     1     -2.8398274     23  1.900                                             
     2     -8.1634956     23  1.900                                             
  local pseudopotential read in
  partial core-charges read in
  partial kinetic energy density read in
  atomic valenz-charges read in
  non local Contribution for L=           0  read in
    real space projection operators read in
  non local Contribution for L=           0  read in
    real space projection operators read in
  non local Contribution for L=           1  read in
    real space projection operators read in
  non local Contribution for L=           1  read in
    real space projection operators read in
    PAW grid and wavefunctions read in
 
   number of l-projection  operators is LMAX  =           4
   number of lm-projection operators is LMMAX =           8
 
 POTCAR:    PAW Li_sv 10Sep2004                   
   VRHFIN =Li: 1s2s                                                             
   LEXCH  = CA                                                                  
   EATOM  =   199.5738 eV,   14.6683 Ry                                         
                                                                                
   TITEL  = PAW Li_sv 10Sep2004                                                 
   LULTRA =        F    use ultrasoft PP ?                                      
   IUNSCR =        0    unscreen: 0-lin 1-nonlin 2-no                           
   RPACOR =    0.000    partial core radius                                     
   POMASS =    7.010; ZVAL   =    3.000    mass and valenz                      
   RCORE  =    1.700    outmost cutoff radius                                   
   RWIGS  =    2.050; RWIGS  =    1.085    wigner-seitz radius (au A)           
   ENMAX  =  498.387; ENMIN  =  373.790 eV                                      
   ICORE  =        2    local potential                                         
   LCOR   =        T    correct aug charges                                     
   LPAW   =        T    paw PP                                                  
   EAUG   =  628.945                                                            
   RMAX   =    1.732    core radius for proj-oper                               
   RAUG   =    1.300    factor for augmentation sphere                          
   RDEP   =    1.728    radius for radial grids                                 
   RDEPT  =    1.329    core radius for aug-charge                              
                                                                                
   Atomic configuration                                                         
    4 entries                                                                   
     n  l   j            E        occ.                                          
     1  0  0.50       -51.0884   2.0000                                         
     2  0  0.50        -2.8766   1.0000                                         
     2  1  0.50        -2.8708   0.0000                                         
     3  2  1.50        -1.3606   0.0000                                         
   Description                                                                  
     l       E           TYP  RCUT    TYP  RCUT                                 
     0    -51.0884324     23  1.400                                             
     0     -2.8766458     23  1.700                                             
     1     -2.8708293     23  1.400                                             
     2     -1.3605826     23  1.400                                             
  local pseudopotential read in
  atomic valenz-charges read in
  non local Contribution for L=           0  read in
    real space projection operators read in
  non local Contribution for L=           0  read in
    real space projection operators read in
  non local Contribution for L=           1  read in
    real space projection operators read in
    PAW grid and wavefunctions read in
 
   number of l-projection  operators is LMAX  =           3
   number of lm-projection operators is LMMAX =           5
 
 Optimization of the real space projectors (new method)

 maximal supplied QI-value         = 19.84
 optimisation between [QCUT,QGAM] = [ 10.32, 20.83] = [ 29.81,121.55] Ry 
 Optimized for a Real-space Cutoff    1.39 Angstroem

   l    n(q)    QCUT    max X(q) W(low)/X(q) W(high)/X(q)  e(spline) 
   0      9    10.318   158.476    0.64E-04    0.80E-04    0.60E-07
   0      9    10.318   128.097    0.63E-04    0.79E-04    0.60E-07
   1      8    10.318    73.217    0.18E-03    0.19E-03    0.20E-06
   1      8    10.318    48.248    0.18E-03    0.19E-03    0.19E-06
 Optimization of the real space projectors (new method)

 maximal supplied QI-value         = 19.84
 optimisation between [QCUT,QGAM] = [ 10.32, 20.83] = [ 29.81,121.55] Ry 
 Optimized for a Real-space Cutoff    1.39 Angstroem

   l    n(q)    QCUT    max X(q) W(low)/X(q) W(high)/X(q)  e(spline) 
   0      9    10.318   180.455    0.73E-04    0.81E-04    0.62E-07
   0      9    10.318   157.733    0.72E-04    0.81E-04    0.62E-07
   1      8    10.318    66.201    0.18E-03    0.20E-03    0.20E-06
   1      8    10.318    49.617    0.18E-03    0.20E-03    0.20E-06
 Optimization of the real space projectors (new method)

 maximal supplied QI-value         = 22.11
 optimisation between [QCUT,QGAM] = [ 10.39, 20.78] = [ 30.24,120.96] Ry 
 Optimized for a Real-space Cutoff    1.20 Angstroem

   l    n(q)    QCUT    max X(q) W(low)/X(q) W(high)/X(q)  e(spline) 
   0      7    10.392    10.443    0.77E-04    0.41E-05    0.30E-07
   0      7    10.392     8.514    0.20E-03    0.36E-04    0.67E-07
   1      7    10.392     5.406    0.20E-03    0.20E-03    0.12E-06
  PAW P 26Mar2009                       :
 energy of atom  1       EATOM= -176.5121
 kinetic energy error for atom=    0.0021 (will be added to EATOM!!)
  PAW S 27Mar2009                       :
 energy of atom  2       EATOM= -277.3745
 kinetic energy error for atom=    0.0041 (will be added to EATOM!!)
  PAW Li_sv 10Sep2004                   :
 energy of atom  3       EATOM= -199.5738
 kinetic energy error for atom=    0.0564 (will be added to EATOM!!)
 
 
 POSCAR: Good luck                               
  positions in cartesian coordinates
  No initial velocities read in
 exchange correlation table for  LEXCH =        2
   RHO(1)=    0.500       N(1)  =     2000
   RHO(2)=  100.500       N(2)  =     4000
 


--------------------------------------------------------------------------------------------------------


 ion  position               nearest neighbor table
   1  0.000  0.772  0.440-   9 2.03   7 2.03   3 2.04   6 2.04
   2  0.500  0.228  0.940-  10 2.03   8 2.03   4 2.04   5 2.04
   3  0.208  0.603  0.553-   1 2.04  13 2.41  14 2.41  12 2.58  11 2.65
   4  0.292  0.397  0.053-   2 2.04  14 2.41  13 2.41  11 2.58  12 2.65
   5  0.708  0.397  0.053-   2 2.04  15 2.41  16 2.41  11 2.58  12 2.65
   6  0.792  0.603  0.553-   1 2.04  16 2.41  15 2.41  12 2.58  11 2.65
   7  0.000  0.814  0.101-   1 2.03  13 2.37  16 2.37
   8  0.500  0.186  0.601-   2 2.03  14 2.37  15 2.37
   9  0.000  0.067  0.596-   1 2.03  14 2.36  15 2.36  11 2.69
  10  0.500  0.933  0.096-   2 2.03  13 2.36  16 2.36  12 2.69
  11  0.000  0.427  0.855-   4 2.58   5 2.58   3 2.65   6 2.65   9 2.69
  12  0.500  0.573  0.355-   3 2.58   6 2.58   4 2.65   5 2.65  10 2.69
  13  0.266  0.765  0.915-  10 2.36   7 2.37   3 2.41   4 2.41
  14  0.234  0.235  0.415-   9 2.36   8 2.37   4 2.41   3 2.41
  15  0.766  0.235  0.415-   9 2.36   8 2.37   5 2.41   6 2.41
  16  0.734  0.765  0.915-  10 2.36   7 2.37   6 2.41   5 2.41
 
  LATTYP: Found a simple orthorhombic cell.
 ALAT       =     5.9365513702
 B/A-ratio  =     1.0312814701
 C/A-ratio  =     1.3167401733
  
  Lattice vectors:
  
 A1 = (   0.0000000000,   0.0000000000,  -5.9365513702)
 A2 = (   0.0000000000,  -6.1222554242,   0.0000000000)
 A3 = (  -7.8168956798,   0.0000000000,   0.0000000000)


Analysis of symmetry for initial positions (statically):
=====================================================================
 Subroutine PRICEL returns:
 Original cell was already a primitive cell.
 

 Routine SETGRP: Setting up the symmetry group for a 
 simple orthorhombic supercell.


 Subroutine GETGRP returns: Found  4 space group operations
 (whereof  2 operations were pure point group operations)
 out of a pool of  8 trial point group operations.


The static configuration has the point symmetry C_1h.
 The point group associated with its full space group is C_2v.


Analysis of symmetry for dynamics (positions and initial velocities):
=====================================================================
 Subroutine PRICEL returns:
 Original cell was already a primitive cell.
 

 Routine SETGRP: Setting up the symmetry group for a 
 simple orthorhombic supercell.


 Subroutine GETGRP returns: Found  4 space group operations
 (whereof  2 operations were pure point group operations)
 out of a pool of  8 trial point group operations.


The dynamic configuration has the point symmetry C_1h.
 The point group associated with its full space group is C_2v.


 Subroutine INISYM returns: Found  4 space group operations
 (whereof  2 operations are pure point group operations),
 and found     1 'primitive' translations

 
 
 KPOINTS: Automatic mesh                          

Automatic generation of k-mesh.
Space group operators:
 irot       det(A)        alpha          n_x          n_y          n_z        tau_x        tau_y        tau_z
    1     1.000000     0.000001     1.000000     0.000000     0.000000     0.000000     0.000000     0.000000
    2    -1.000000   179.999999     1.000000     0.000000     0.000000     0.000000     0.000000     0.000000
    3    -1.000000   179.999999     0.000000     1.000000     0.000000    -0.500000    -0.000000    -0.500000
    4     1.000000   180.000000     0.000000     0.000000     1.000000    -0.500000    -0.000000    -0.500000
 
 Subroutine IBZKPT returns following result:
 ===========================================
 
 Found      8 irreducible k-points:
 
 Following reciprocal coordinates:
            Coordinates               Weight
  0.125000  0.125000  0.125000      8.000000
  0.375000  0.125000  0.125000      8.000000
  0.125000  0.375000  0.125000      8.000000
  0.375000  0.375000  0.125000      8.000000
  0.125000  0.125000  0.375000      8.000000
  0.375000  0.125000  0.375000      8.000000
  0.125000  0.375000  0.375000      8.000000
  0.375000  0.375000  0.375000      8.000000
 
 Following cartesian coordinates:
            Coordinates               Weight
  0.015991  0.020417  0.021056      8.000000
  0.047973  0.020417  0.021056      8.000000
  0.015991  0.061252  0.021056      8.000000
  0.047973  0.061252  0.021056      8.000000
  0.015991  0.020417  0.063168      8.000000
  0.047973  0.020417  0.063168      8.000000
  0.015991  0.061252  0.063168      8.000000
  0.047973  0.061252  0.063168      8.000000
 
 TETIRR: Found    140 inequivalent tetrahedra from      384


--------------------------------------------------------------------------------------------------------




 Dimension of arrays:
   k-points           NKPTS =      8   k-points in BZ     NKDIM =      8   number of bands    NBANDS=     48
   number of dos      NEDOS =    301   number of ions     NIONS =     16
   non local maximal  LDIM  =      4   non local SUM 2l+1 LMDIM =      8
   total plane-waves  NPLWV =  90720
   max r-space proj   IRMAX =   3624   max aug-charges    IRDMAX=  10258
   dimension x,y,z NGX =    54 NGY =   42 NGZ =   40
   dimension x,y,z NGXF=   108 NGYF=   84 NGZF=   80
   support grid    NGXF=   108 NGYF=   84 NGZF=   80
   ions per type =               2   8   6
   NGX,Y,Z   is equivalent  to a cutoff of  11.48, 11.40, 11.20 a.u.
   NGXF,Y,Z  is equivalent  to a cutoff of  22.97, 22.81, 22.40 a.u.

 SYSTEM =  unknown system                          
 POSCAR =  Good luck                               

 Startparameter for this run:
   NWRITE =      2    write-flag & timer
   PREC   = accura    normal or accurate (medium, high low for compatibility)
   ISTART =      0    job   : 0-new  1-cont  2-samecut
   ICHARG =      2    charge: 1-file 2-atom 10-const
   ISPIN  =      1    spin polarized calculation?
   LNONCOLLINEAR =      F non collinear calculations
   LSORBIT =      F    spin-orbit coupling
   INIWAV =      1    electr: 0-lowe 1-rand  2-diag
   LASPH  =      F    aspherical Exc in radial PAW
   METAGGA=      F    non-selfconsistent MetaGGA calc.

 Electronic Relaxation 1
   ENCUT  =  420.0 eV  30.87 Ry    5.56 a.u.  13.06 10.23  9.92*2*pi/ulx,y,z
   ENINI  =  420.0     initial cutoff
   ENAUG  =  628.9 eV  augmentation charge cutoff
   NELM   =    100;   NELMIN=  2; NELMDL= -5     # of ELM steps 
   EDIFF  = 0.2E-04   stopping-criterion for ELM
   LREAL  =      T    real-space projection
   NLSPLINE    = F    spline interpolate recip. space projectors
   LCOMPAT=      F    compatible to vasp.4.4
   GGA_COMPAT  = T    GGA compatible to vasp.4.4-vasp.4.6
   LMAXPAW     = -100 max onsite density
   LMAXMIX     =    2 max onsite mixed and CHGCAR
   VOSKOWN=      0    Vosko Wilk Nusair interpolation
   ROPT   =   -0.00025  -0.00025  -0.00025
 Ionic relaxation
   EDIFFG = 0.2E-03   stopping-criterion for IOM
   NSW    =    100    number of steps for IOM
   NBLOCK =      1;   KBLOCK =    100    inner block; outer block 
   IBRION =      2    ionic relax: 0-MD 1-quasi-New 2-CG
   NFREE  =      1    steps in history (QN), initial steepest desc. (CG)
   ISIF   =      3    stress and relaxation
   IWAVPR =     11    prediction:  0-non 1-charg 2-wave 3-comb
   ISYM   =      2    0-nonsym 1-usesym 2-fastsym
   LCORR  =      T    Harris-Foulkes like correction to forces

   POTIM  = 0.5000    time-step for ionic-motion
   TEIN   =    0.0    initial temperature
   TEBEG  =    0.0;   TEEND  =   0.0 temperature during run
   SMASS  =  -3.00    Nose mass-parameter (am)
   estimated Nose-frequenzy (Omega)   =  0.10E-29 period in steps =****** mass=  -0.140E-26a.u.
   SCALEE = 1.0000    scale energy and forces
   NPACO  =    256;   APACO  = 16.0  distance and # of slots for P.C.
   PSTRESS=    0.0 pullay stress

  Mass of Ions in am
   POMASS =  30.97 32.07  7.01
  Ionic Valenz
   ZVAL   =   5.00  6.00  3.00
  Atomic Wigner-Seitz radii
   RWIGS  =  -1.00 -1.00 -1.00
  virtual crystal weights 
   VCA    =   1.00  1.00  1.00
   NELECT =      76.0000    total number of electrons
   NUPDOWN=      -1.0000    fix difference up-down

 DOS related values:
   EMIN   =  10.00;   EMAX   =-10.00  energy-range for DOS
   EFERMI =   0.00
   ISMEAR =    -5;   SIGMA  =   0.20  broadening in eV -4-tet -1-fermi 0-gaus

 Electronic relaxation 2 (details)
   IALGO  =     68    algorithm
   LDIAG  =      T    sub-space diagonalisation (order eigenvalues)
   LSUBROT=      F    optimize rotation matrix (better conditioning)
   TURBO    =      0    0=normal 1=particle mesh
   IRESTART =      0    0=no restart 2=restart with 2 vectors
   NREBOOT  =      0    no. of reboots
   NMIN     =      0    reboot dimension
   EREF     =   0.00    reference energy to select bands
   IMIX   =      4    mixing-type and parameters
     AMIX     =   0.40;   BMIX     =  1.00
     AMIX_MAG =   1.60;   BMIX_MAG =  1.00
     AMIN     =   0.10
     WC   =   100.;   INIMIX=   1;  MIXPRE=   1;  MAXMIX= -45

 Intra band minimization:
   WEIMIN = 0.0010     energy-eigenvalue tresh-hold
   EBREAK =  0.10E-06  absolut break condition
   DEPER  =   0.30     relativ break condition  

   TIME   =   0.40     timestep for ELM

  volume/ion in A,a.u.               =      17.76       119.83
  Fermi-wavevector in a.u.,A,eV,Ry     =   1.054839  1.993356 15.138993  1.112685
  Thomas-Fermi vector in A             =   2.190014
 
 Write flags
   LWAVE        =      F    write WAVECAR
   LDOWNSAMPLE  =      F    k-point downsampling of WAVECAR
   LCHARG       =      F    write CHGCAR
   LVTOT        =      F    write LOCPOT, total local potential
   LVHAR        =      F    write LOCPOT, Hartree potential only
   LELF         =      F    write electronic localiz. function (ELF)
   LORBIT       =      0    0 simple, 1 ext, 2 COOP (PROOUT), +10 PAW based schemes


 Dipole corrections
   LMONO  =      F    monopole corrections only (constant potential shift)
   LDIPOL =      F    correct potential (dipole corrections)
   IDIPOL =      0    1-x, 2-y, 3-z, 4-all directions 
   EPSILON=  1.0000000 bulk dielectric constant

 Exchange correlation treatment:
   GGA     =    --    GGA type
   LEXCH   =     2    internal setting for exchange type
   VOSKOWN=      0    Vosko Wilk Nusair interpolation
   LHFCALC =     F    Hartree Fock is set to
   LHFONE  =     F    Hartree Fock one center treatment
   AEXX    =    0.0000 exact exchange contribution

 Linear response parameters
   LEPSILON=     F    determine dielectric tensor
   LRPA    =     F    only Hartree local field effects (RPA)
   LNABLA  =     F    use nabla operator in PAW spheres
   LVEL    =     F    velocity operator in full k-point grid
   LINTERFAST=   F  fast interpolation
   KINTER  =     0    interpolate to denser k-point grid
   CSHIFT  =0.1000    complex shift for real part using Kramers Kronig
   OMEGAMAX=  -1.0    maximum frequency
   DEG_THRESHOLD= 0.2000000E-02 threshold for treating states as degnerate
   RTIME   =   -0.100 relaxation time in fs
  (WPLASMAI=    0.000 imaginary part of plasma frequency in eV, 0.658/RTIME)
   DFIELD  = 0.0000000 0.0000000 0.0000000 field for delta impulse in time
 
 Orbital magnetization related:
   ORBITALMAG=     F  switch on orbital magnetization
   LCHIMAG   =     F  perturbation theory with respect to B field
   DQ        =  0.001000  dq finite difference perturbation B field
   LLRAUG    =     F  two centre corrections for induced B field



--------------------------------------------------------------------------------------------------------


 conjugate gradient relaxation of ions
 charge density and potential will be updated during run
 non-spin polarized calculation
 RMM-DIIS sequential band-by-band and
  variant of blocked Davidson during initial phase
 perform sub-space diagonalisation
    before iterative eigenvector-optimisation
 modified Broyden-mixing scheme, WC =      100.0
 initial mixing is a Kerker type mixing with AMIX =  0.4000 and BMIX =      1.0000
 Hartree-type preconditioning will be used
 using additional bands           10
 real space projection scheme for non local part
 use partial core corrections
 calculate Harris-corrections to forces 
   (improved forces if not selfconsistent)
 use of overlap-Matrix (Vanderbilt PP)
 Fermi weights with tetrahedron method with Bloechl corrections


--------------------------------------------------------------------------------------------------------


  energy-cutoff  :      420.00
  volume of cell :      284.11
      direct lattice vectors                 reciprocal lattice vectors
     7.816895680  0.000000000  0.000000000     0.127928022  0.000000000  0.000000000
     0.000000000  6.122255424  0.000000000     0.000000000  0.163338497  0.000000000
     0.000000000  0.000000000  5.936551370     0.000000000  0.000000000  0.168447965

  length of vectors
     7.816895680  6.122255424  5.936551370     0.127928022  0.163338497  0.168447965


 
 k-points in units of 2pi/SCALE and weight: Automatic mesh                          
   0.01599100  0.02041731  0.02105600       0.125
   0.04797301  0.02041731  0.02105600       0.125
   0.01599100  0.06125194  0.02105600       0.125
   0.04797301  0.06125194  0.02105600       0.125
   0.01599100  0.02041731  0.06316799       0.125
   0.04797301  0.02041731  0.06316799       0.125
   0.01599100  0.06125194  0.06316799       0.125
   0.04797301  0.06125194  0.06316799       0.125
 
 k-points in reciprocal lattice and weights: Automatic mesh                          
   0.12500000  0.12500000  0.12500000       0.125
   0.37500000  0.12500000  0.12500000       0.125
   0.12500000  0.37500000  0.12500000       0.125
   0.37500000  0.37500000  0.12500000       0.125
   0.12500000  0.12500000  0.37500000       0.125
   0.37500000  0.12500000  0.37500000       0.125
   0.12500000  0.37500000  0.37500000       0.125
   0.37500000  0.37500000  0.37500000       0.125
 
 position of ions in fractional coordinates (direct lattice) 
   0.00000000  0.77210351  0.43962069
   0.50000000  0.22789649  0.93962069
   0.20785343  0.60291622  0.55348283
   0.29214657  0.39708378  0.05348283
   0.70785343  0.39708378  0.05348283
   0.79214657  0.60291622  0.55348283
   0.00000000  0.81445933  0.10055016
   0.50000000  0.18554067  0.60055016
   0.00000000  0.06680310  0.59590400
   0.50000000  0.93319690  0.09590400
   0.00000000  0.42684406  0.85487146
   0.50000000  0.57315594  0.35487146
   0.26584918  0.76535326  0.91461516
   0.23415082  0.23464674  0.41461516
   0.76584918  0.23464674  0.41461516
   0.73415082  0.76535326  0.91461516
 
 position of ions in cartesian coordinates  (Angst):
   0.00000000  4.72701492  2.60983081
   3.90844784  1.39524051  5.57810649
   1.62476862  3.69120712  3.28577925
   2.28367922  2.43104830  0.31750356
   5.53321646  2.43104830  0.31750356
   6.19212706  3.69120712  3.28577925
   0.00000000  4.98632806  0.59692119
   3.90844784  1.13592736  3.56519688
   0.00000000  0.40898562  3.53761473
   3.90844784  5.71326981  0.56933905
   0.00000000  2.61324839  5.07498837
   3.90844784  3.50900703  2.10671268
   2.07811531  4.68568816  5.42965991
   1.83033253  1.43656727  2.46138422
   5.98656315  1.43656727  2.46138422
   5.73878037  4.68568816  5.42965991
 


--------------------------------------------------------------------------------------------------------


 k-point  1 :   0.1250 0.1250 0.1250  plane waves:    5549
 k-point  2 :   0.3750 0.1250 0.1250  plane waves:    5535
 k-point  3 :   0.1250 0.3750 0.1250  plane waves:    5545
 k-point  4 :   0.3750 0.3750 0.1250  plane waves:    5555
 k-point  5 :   0.1250 0.1250 0.3750  plane waves:    5555
 k-point  6 :   0.3750 0.1250 0.3750  plane waves:    5564
 k-point  7 :   0.1250 0.3750 0.3750  plane waves:    5561
 k-point  8 :   0.3750 0.3750 0.3750  plane waves:    5560

 maximum and minimum number of plane-waves per node :       361      337

 maximum number of plane-waves:      5564
 maximum index in each direction: 
   IXMAX=   12   IYMAX=   10   IZMAX=    9
   IXMIN=  -13   IYMIN=  -10   IZMIN=  -10


 real space projection operators:
  total allocation   :       2691.64 KBytes
  max/ min on nodes  :        206.20        145.39


 parallel 3D FFT for wavefunctions:
    minimum data exchange during FFTs selected (reduces bandwidth)
 parallel 3D FFT for charge:
    minimum data exchange during FFTs selected (reduces bandwidth)


 total amount of memory used by VASP MPI-rank0    33602. kBytes
=======================================================================

   base      :      30000. kBytes
   nonlr-proj:       1231. kBytes
   fftplans  :        656. kBytes
   grid      :       1147. kBytes
   one-center:          3. kBytes
   wavefun   :        565. kBytes
 
     INWAV:  cpu time    0.0000: real time    0.0000
 Broyden mixing: mesh for mixing (old mesh)
   NGX = 27   NGY = 21   NGZ = 19
  (NGX  =108   NGY  = 84   NGZ  = 80)
  gives a total of  10773 points

 initial charge density was supplied:
 charge density of overlapping atoms calculated
 number of electron      76.0000000 magnetization 
 keeping initial charge density in first step


--------------------------------------------------------------------------------------------------------


 Maximum index for non-local projection operator          444
 Maximum index for augmentation-charges          546 (set IRDMAX)


--------------------------------------------------------------------------------------------------------


 First call to EWALD:  gamma=   0.270
 Maximum number of real-space cells 2x 3x 3
 Maximum number of reciprocal cells 3x 3x 3

    FEWALD:  cpu time    0.0017: real time    0.0018


--------------------------------------- Iteration      1(   1)  ---------------------------------------


    POTLOK:  cpu time    0.0055: real time    0.0082
    SETDIJ:  cpu time    0.0038: real time    0.0046
     EDDAV:  cpu time    0.1998: real time    0.2072
 BZINTS: Fermi energy: 15.013635; 76.000000 electrons
         Band energy:-114.561304;  BLOECHL correction: -0.125795
       DOS:  cpu time    0.0092: real time    0.0094
    --------------------------------------------
      LOOP:  cpu time    0.2183: real time    0.2294

 eigenvalue-minimisations  :   768
 total energy-change (2. order) : 0.4947082E+03  (-0.2828844E+04)
 number of electron      76.0000000 magnetization 
 augmentation part       76.0000000 magnetization 

 Free energy of the ion-electron system (eV)
  ---------------------------------------------------
  alpha Z        PSCENC =        69.45638970
  Ewald energy   TEWEN  =     -2736.77166153
  -Hartree energ DENC   =      -627.69383643
  -exchange      EXHF   =         0.00000000
  -V(xc)+E(xc)   XCENC  =       182.08853936
  PAW double counting   =      2494.22442938    -2541.12215007
  entropy T*S    EENTRO =         0.00000000
  eigenvalues    EBANDS =      -114.56130355
  atomic energy  EATOM  =      3769.08782378
  Solvation  Ediel_sol  =         0.00000000
  ---------------------------------------------------
  free energy    TOTEN  =       494.70823065 eV

  energy without entropy =      494.70823065  energy(sigma->0) =      494.70823065


--------------------------------------------------------------------------------------------------------




--------------------------------------- Iteration      1(   2)  ---------------------------------------


     EDDAV:  cpu time    0.2001: real time    0.2001
 BZINTS: Fermi energy:  5.085963; 76.000000 electrons
         Band energy:-621.695606;  BLOECHL correction:  0.000000
       DOS:  cpu time    0.0015: real time    0.0015
    --------------------------------------------
      LOOP:  cpu time    0.2016: real time    0.2016

 eigenvalue-minimisations  :   912
 total energy-change (2. order) :-0.5071343E+03  (-0.4843032E+03)
 number of electron      76.0000000 magnetization 
 augmentation part       76.0000000 magnetization 

 Free energy of the ion-electron system (eV)
  ---------------------------------------------------
  alpha Z        PSCENC =        69.45638970
  Ewald energy   TEWEN  =     -2736.77166153
  -Hartree energ DENC   =      -627.69383643
  -exchange      EXHF   =         0.00000000
  -V(xc)+E(xc)   XCENC  =       182.08853936
  PAW double counting   =      2494.22442938    -2541.12215007
  entropy T*S    EENTRO =         0.00000000
  eigenvalues    EBANDS =      -621.69560588
  atomic energy  EATOM  =      3769.08782378
  Solvation  Ediel_sol  =         0.00000000
  ---------------------------------------------------
  free energy    TOTEN  =       -12.42607168 eV

  energy without entropy =      -12.42607168  energy(sigma->0) =      -12.42607168


--------------------------------------------------------------------------------------------------------




--------------------------------------- Iteration      1(   3)  ---------------------------------------


     EDDAV:  cpu time    0.2229: real time    0.2229
 BZINTS: Fermi energy:  2.117513; 76.000000 electrons
         Band energy:-681.449460;  BLOECHL correction:  0.000000
       DOS:  cpu time    0.0014: real time    0.0014
    --------------------------------------------
      LOOP:  cpu time    0.2243: real time    0.2243

 eigenvalue-minimisations  :  1072
 total energy-change (2. order) :-0.5975385E+02  (-0.5932764E+02)
 number of electron      76.0000000 magnetization 
 augmentation part       76.0000000 magnetization 

 Free energy of the ion-electron system (eV)
  ---------------------------------------------------
  alpha Z        PSCENC =        69.45638970
  Ewald energy   TEWEN  =     -2736.77166153
  -Hartree energ DENC   =      -627.69383643
  -exchange      EXHF   =         0.00000000
  -V(xc)+E(xc)   XCENC  =       182.08853936
  PAW double counting   =      2494.22442938    -2541.12215007
  entropy T*S    EENTRO =         0.00000000
  eigenvalues    EBANDS =      -681.44945990
  atomic energy  EATOM  =      3769.08782378
  Solvation  Ediel_sol  =         0.00000000
  ---------------------------------------------------
  free energy    TOTEN  =       -72.17992570 eV

  energy without entropy =      -72.17992570  energy(sigma->0) =      -72.17992570


--------------------------------------------------------------------------------------------------------




--------------------------------------- Iteration      1(   4)  ---------------------------------------


     EDDAV:  cpu time    0.2767: real time    0.2767
 BZINTS: Fermi energy:  2.083666; 76.000000 electrons
         Band energy:-687.922735;  BLOECHL correction:  0.000000
       DOS:  cpu time    0.0014: real time    0.0014
    --------------------------------------------
      LOOP:  cpu time    0.2782: real time    0.2782

 eigenvalue-minimisations  :  1424
 total energy-change (2. order) :-0.6473275E+01  (-0.6449628E+01)
 number of electron      76.0000000 magnetization 
 augmentation part       76.0000000 magnetization 

 Free energy of the ion-electron system (eV)
  ---------------------------------------------------
  alpha Z        PSCENC =        69.45638970
  Ewald energy   TEWEN  =     -2736.77166153
  -Hartree energ DENC   =      -627.69383643
  -exchange      EXHF   =         0.00000000
  -V(xc)+E(xc)   XCENC  =       182.08853936
  PAW double counting   =      2494.22442938    -2541.12215007
  entropy T*S    EENTRO =         0.00000000
  eigenvalues    EBANDS =      -687.92273476
  atomic energy  EATOM  =      3769.08782378
  Solvation  Ediel_sol  =         0.00000000
  ---------------------------------------------------
  free energy    TOTEN  =       -78.65320057 eV

  energy without entropy =      -78.65320057  energy(sigma->0) =      -78.65320057


--------------------------------------------------------------------------------------------------------




--------------------------------------- Iteration      1(   5)  ---------------------------------------


     EDDAV:  cpu time    0.2360: real time    0.2360
 BZINTS: Fermi energy:  2.019388; 76.000000 electrons
         Band energy:-688.723657;  BLOECHL correction:  0.000000
       DOS:  cpu time    0.0012: real time    0.0012
    CHARGE:  cpu time    0.0184: real time    0.0187
    MIXING:  cpu time    0.0010: real time    0.0018
    --------------------------------------------
      LOOP:  cpu time    0.2566: real time    0.2577

 eigenvalue-minimisations  :  1136
 total energy-change (2. order) :-0.8009219E+00  (-0.8007658E+00)
 number of electron      76.0000001 magnetization 
 augmentation part       -1.7297355 magnetization 

 Broyden mixing:
  rms(total) = 0.22965E+01    rms(broyden)= 0.22959E+01
  rms(prec ) = 0.25221E+01
  weight for this iteration     100.00

 Free energy of the ion-electron system (eV)
  ---------------------------------------------------
  alpha Z        PSCENC =        69.45638970
  Ewald energy   TEWEN  =     -2736.77166153
  -Hartree energ DENC   =      -627.69383643
  -exchange      EXHF   =         0.00000000
  -V(xc)+E(xc)   XCENC  =       182.08853936
  PAW double counting   =      2494.22442938    -2541.12215007
  entropy T*S    EENTRO =         0.00000000
  eigenvalues    EBANDS =      -688.72365666
  atomic energy  EATOM  =      3769.08782378
  Solvation  Ediel_sol  =         0.00000000
  ---------------------------------------------------
  free energy    TOTEN  =       -79.45412246 eV

  energy without entropy =      -79.45412246  energy(sigma->0) =      -79.45412246


--------------------------------------------------------------------------------------------------------




--------------------------------------- Iteration      1(   6)  ---------------------------------------


    POTLOK:  cpu time    0.0048: real time    0.0049
    SETDIJ:  cpu time    0.0013: real time    0.0013
    EDDIAG:  cpu time    0.0522: real time    0.0530
  RMM-DIIS:  cpu time    0.0854: real time    0.0854
    ORTHCH:  cpu time    0.0068: real time    0.0068
 BZINTS: Fermi energy:  2.512200; 76.000000 electrons
         Band energy:-672.329408;  BLOECHL correction:  0.000000
       DOS:  cpu time    0.0015: real time    0.0015
    CHARGE:  cpu time    0.0167: real time    0.0167
    MIXING:  cpu time    0.0007: real time    0.0007
    --------------------------------------------
      LOOP:  cpu time    0.1693: real time    0.1701

 eigenvalue-minimisations  :   805
 total energy-change (2. order) : 0.2103570E+01  (-0.6382912E+00)
 number of electron      76.0000001 magnetization 
 augmentation part       -1.6806339 magnetization 

 Broyden mixing:
  rms(total) = 0.15169E+01    rms(broyden)= 0.15169E+01
  rms(prec ) = 0.15763E+01
  weight for this iteration     100.00

 eigenvalues of (default mixing * dielectric matrix)
  average eigenvalue GAMMA=   2.4682
  2.4682

 Free energy of the ion-electron system (eV)
  ---------------------------------------------------
  alpha Z        PSCENC =        69.45638970
  Ewald energy   TEWEN  =     -2736.77166153
  -Hartree energ DENC   =      -641.75863223
  -exchange      EXHF   =         0.00000000
  -V(xc)+E(xc)   XCENC  =       183.66382396
  PAW double counting   =      3997.87401701    -4046.57290513
  entropy T*S    EENTRO =         0.00000000
  eigenvalues    EBANDS =      -672.32940846
  atomic energy  EATOM  =      3769.08782378
  Solvation  Ediel_sol  =         0.00000000
  ---------------------------------------------------
  free energy    TOTEN  =       -77.35055291 eV

  energy without entropy =      -77.35055291  energy(sigma->0) =      -77.35055291


--------------------------------------------------------------------------------------------------------




--------------------------------------- Iteration      1(   7)  ---------------------------------------


    POTLOK:  cpu time    0.0042: real time    0.0042
    SETDIJ:  cpu time    0.0012: real time    0.0012
    EDDIAG:  cpu time    0.0514: real time    0.0515
  RMM-DIIS:  cpu time    0.0853: real time    0.0853
    ORTHCH:  cpu time    0.0067: real time    0.0067
 BZINTS: Fermi energy:  2.800420; 76.000000 electrons
         Band energy:-657.234475;  BLOECHL correction:  0.000000
       DOS:  cpu time    0.0012: real time    0.0012
    CHARGE:  cpu time    0.0164: real time    0.0164
    MIXING:  cpu time    0.0007: real time    0.0007
    --------------------------------------------
      LOOP:  cpu time    0.1671: real time    0.1672

 eigenvalue-minimisations  :   812
 total energy-change (2. order) : 0.4240777E+00  (-0.2575106E+00)
 number of electron      76.0000001 magnetization 
 augmentation part       -1.6434835 magnetization 

 Broyden mixing:
  rms(total) = 0.40804E+00    rms(broyden)= 0.40804E+00
  rms(prec ) = 0.43260E+00
  weight for this iteration     100.00

 eigenvalues of (default mixing * dielectric matrix)
  average eigenvalue GAMMA=   1.9188
  1.4078  2.4297

 Free energy of the ion-electron system (eV)
  ---------------------------------------------------
  alpha Z        PSCENC =        69.45638970
  Ewald energy   TEWEN  =     -2736.77166153
  -Hartree energ DENC   =      -656.33349936
  -exchange      EXHF   =         0.00000000
  -V(xc)+E(xc)   XCENC  =       185.24373612
  PAW double counting   =      6779.66284763    -6830.03763661
  entropy T*S    EENTRO =         0.00000000
  eigenvalues    EBANDS =      -657.23447499
  atomic energy  EATOM  =      3769.08782378
  Solvation  Ediel_sol  =         0.00000000
  ---------------------------------------------------
  free energy    TOTEN  =       -76.92647525 eV

  energy without entropy =      -76.92647525  energy(sigma->0) =      -76.92647525


--------------------------------------------------------------------------------------------------------




--------------------------------------- Iteration      1(   8)  ---------------------------------------


    POTLOK:  cpu time    0.0040: real time    0.0040
    SETDIJ:  cpu time    0.0013: real time    0.0013
    EDDIAG:  cpu time    0.0513: real time    0.0513
  RMM-DIIS:  cpu time    0.1039: real time    0.1039
    ORTHCH:  cpu time    0.0068: real time    0.0068
 BZINTS: Fermi energy:  2.767428; 76.000000 electrons
         Band energy:-656.854891;  BLOECHL correction:  0.000000
       DOS:  cpu time    0.0015: real time    0.0015
    CHARGE:  cpu time    0.0171: real time    0.0171
    MIXING:  cpu time    0.0007: real time    0.0007
    --------------------------------------------
      LOOP:  cpu time    0.1865: real time    0.1866

 eigenvalue-minimisations  :   957
 total energy-change (2. order) : 0.7524701E-01  (-0.2368541E-01)
 number of electron      76.0000001 magnetization 
 augmentation part       -1.6706746 magnetization 

 Broyden mixing:
  rms(total) = 0.57569E-01    rms(broyden)= 0.57541E-01
  rms(prec ) = 0.70432E-01
  weight for this iteration     100.00

 eigenvalues of (default mixing * dielectric matrix)
  average eigenvalue GAMMA=   1.6885
  1.0501  1.7676  2.2478

 Free energy of the ion-electron system (eV)
  ---------------------------------------------------
  alpha Z        PSCENC =        69.45638970
  Ewald energy   TEWEN  =     -2736.77166153
  -Hartree energ DENC   =      -656.61045796
  -exchange      EXHF   =         0.00000000
  -V(xc)+E(xc)   XCENC  =       185.31983687
  PAW double counting   =      7559.66939916    -7610.14766764
  entropy T*S    EENTRO =         0.00000000
  eigenvalues    EBANDS =      -656.85489062
  atomic energy  EATOM  =      3769.08782378
  Solvation  Ediel_sol  =         0.00000000
  ---------------------------------------------------
  free energy    TOTEN  =       -76.85122824 eV

  energy without entropy =      -76.85122824  energy(sigma->0) =      -76.85122824


--------------------------------------------------------------------------------------------------------




--------------------------------------- Iteration      1(   9)  ---------------------------------------


    POTLOK:  cpu time    0.0039: real time    0.0039
    SETDIJ:  cpu time    0.0014: real time    0.0014
    EDDIAG:  cpu time    0.0519: real time    0.0519
  RMM-DIIS:  cpu time    0.1045: real time    0.1045
    ORTHCH:  cpu time    0.0068: real time    0.0068
 BZINTS: Fermi energy:  2.767779; 76.000000 electrons
         Band energy:-657.949285;  BLOECHL correction:  0.000000
       DOS:  cpu time    0.0014: real time    0.0014
    CHARGE:  cpu time    0.0164: real time    0.0164
    MIXING:  cpu time    0.0007: real time    0.0007
    --------------------------------------------
      LOOP:  cpu time    0.1871: real time    0.1871

 eigenvalue-minimisations  :   985
 total energy-change (2. order) : 0.6400933E-02  (-0.3222461E-02)
 number of electron      76.0000001 magnetization 
 augmentation part       -1.6857885 magnetization 

 Broyden mixing:
  rms(total) = 0.23481E-01    rms(broyden)= 0.23466E-01
  rms(prec ) = 0.25104E-01
  weight for this iteration     100.00

 eigenvalues of (default mixing * dielectric matrix)
  average eigenvalue GAMMA=   1.7699
  1.2183  2.1319  1.8648  1.8648

 Free energy of the ion-electron system (eV)
  ---------------------------------------------------
  alpha Z        PSCENC =        69.45638970
  Ewald energy   TEWEN  =     -2736.77166153
  -Hartree energ DENC   =      -655.47666712
  -exchange      EXHF   =         0.00000000
  -V(xc)+E(xc)   XCENC  =       185.25398088
  PAW double counting   =      7465.12075867    -7515.56616680
  entropy T*S    EENTRO =         0.00000000
  eigenvalues    EBANDS =      -657.94928489
  atomic energy  EATOM  =      3769.08782378
  Solvation  Ediel_sol  =         0.00000000
  ---------------------------------------------------
  free energy    TOTEN  =       -76.84482731 eV

  energy without entropy =      -76.84482731  energy(sigma->0) =      -76.84482731


--------------------------------------------------------------------------------------------------------




--------------------------------------- Iteration      1(  10)  ---------------------------------------


    POTLOK:  cpu time    0.0039: real time    0.0039
    SETDIJ:  cpu time    0.0014: real time    0.0014
    EDDIAG:  cpu time    0.0510: real time    0.0510
  RMM-DIIS:  cpu time    0.1291: real time    0.1291
    ORTHCH:  cpu time    0.0068: real time    0.0068
 BZINTS: Fermi energy:  2.767168; 76.000000 electrons
         Band energy:-657.613266;  BLOECHL correction:  0.000000
       DOS:  cpu time    0.0014: real time    0.0014
    CHARGE:  cpu time    0.0180: real time    0.0180
    MIXING:  cpu time    0.0007: real time    0.0007
    --------------------------------------------
      LOOP:  cpu time    0.2122: real time    0.2122

 eigenvalue-minimisations  :  1192
 total energy-change (2. order) :-0.2850602E-03  (-0.7003668E-03)
 number of electron      76.0000001 magnetization 
 augmentation part       -1.6895904 magnetization 

 Broyden mixing:
  rms(total) = 0.14264E-01    rms(broyden)= 0.14252E-01
  rms(prec ) = 0.15006E-01
  weight for this iteration     100.00

 eigenvalues of (default mixing * dielectric matrix)
  average eigenvalue GAMMA=   1.8005
  2.4329  2.4329  1.9848  1.2915  0.8603

 Free energy of the ion-electron system (eV)
  ---------------------------------------------------
  alpha Z        PSCENC =        69.45638970
  Ewald energy   TEWEN  =     -2736.77166153
  -Hartree energ DENC   =      -655.81432796
  -exchange      EXHF   =         0.00000000
  -V(xc)+E(xc)   XCENC  =       185.28457148
  PAW double counting   =      7440.91734824    -7491.39198979
  entropy T*S    EENTRO =         0.00000000
  eigenvalues    EBANDS =      -657.61326629
  atomic energy  EATOM  =      3769.08782378
  Solvation  Ediel_sol  =         0.00000000
  ---------------------------------------------------
  free energy    TOTEN  =       -76.84511237 eV

  energy without entropy =      -76.84511237  energy(sigma->0) =      -76.84511237


--------------------------------------------------------------------------------------------------------




--------------------------------------- Iteration      1(  11)  ---------------------------------------


    POTLOK:  cpu time    0.0045: real time    0.0045
    SETDIJ:  cpu time    0.0018: real time    0.0018
    EDDIAG:  cpu time    0.0577: real time    0.0577
  RMM-DIIS:  cpu time    0.1192: real time    0.1193
    ORTHCH:  cpu time    0.0067: real time    0.0067
 BZINTS: Fermi energy:  2.766943; 76.000000 electrons
         Band energy:-657.428403;  BLOECHL correction:  0.000000
       DOS:  cpu time    0.0015: real time    0.0015
    CHARGE:  cpu time    0.0168: real time    0.0168
    MIXING:  cpu time    0.0007: real time    0.0007
    --------------------------------------------
      LOOP:  cpu time    0.2090: real time    0.2090

 eigenvalue-minimisations  :  1097
 total energy-change (2. order) :-0.3420674E-03  (-0.3398422E-03)
 number of electron      76.0000001 magnetization 
 augmentation part       -1.6914427 magnetization 

 Broyden mixing:
  rms(total) = 0.49026E-02    rms(broyden)= 0.48905E-02
  rms(prec ) = 0.54675E-02
  weight for this iteration     100.00

 eigenvalues of (default mixing * dielectric matrix)
  average eigenvalue GAMMA=   1.6937
  2.4573  2.4573  1.0257  1.5023  1.3599  1.3599

 Free energy of the ion-electron system (eV)
  ---------------------------------------------------
  alpha Z        PSCENC =        69.45638970
  Ewald energy   TEWEN  =     -2736.77166153
  -Hartree energ DENC   =      -656.00243197
  -exchange      EXHF   =         0.00000000
  -V(xc)+E(xc)   XCENC  =       185.30097531
  PAW double counting   =      7412.23318291    -7462.72132961
  entropy T*S    EENTRO =         0.00000000
  eigenvalues    EBANDS =      -657.42840303
  atomic energy  EATOM  =      3769.08782378
  Solvation  Ediel_sol  =         0.00000000
  ---------------------------------------------------
  free energy    TOTEN  =       -76.84545444 eV

  energy without entropy =      -76.84545444  energy(sigma->0) =      -76.84545444


--------------------------------------------------------------------------------------------------------




--------------------------------------- Iteration      1(  12)  ---------------------------------------


    POTLOK:  cpu time    0.0041: real time    0.0041
    SETDIJ:  cpu time    0.0014: real time    0.0014
    EDDIAG:  cpu time    0.0509: real time    0.0509
  RMM-DIIS:  cpu time    0.1176: real time    0.1176
    ORTHCH:  cpu time    0.0068: real time    0.0068
 BZINTS: Fermi energy:  2.764321; 76.000000 electrons
         Band energy:-657.473144;  BLOECHL correction:  0.000000
       DOS:  cpu time    0.0015: real time    0.0015
    CHARGE:  cpu time    0.0162: real time    0.0162
    MIXING:  cpu time    0.0007: real time    0.0007
    --------------------------------------------
      LOOP:  cpu time    0.1992: real time    0.1992

 eigenvalue-minimisations  :  1097
 total energy-change (2. order) :-0.1322186E-03  (-0.1587174E-03)
 number of electron      76.0000001 magnetization 
 augmentation part       -1.6932952 magnetization 

 Broyden mixing:
  rms(total) = 0.23448E-02    rms(broyden)= 0.23348E-02
  rms(prec ) = 0.25978E-02
  weight for this iteration     100.00

 eigenvalues of (default mixing * dielectric matrix)
  average eigenvalue GAMMA=   1.5469
  2.4093  2.4093  1.0320  1.5685  1.5385  1.3569  0.5133

 Free energy of the ion-electron system (eV)
  ---------------------------------------------------
  alpha Z        PSCENC =        69.45638970
  Ewald energy   TEWEN  =     -2736.77166153
  -Hartree energ DENC   =      -655.96402143
  -exchange      EXHF   =         0.00000000
  -V(xc)+E(xc)   XCENC  =       185.30127775
  PAW double counting   =      7423.32696531    -7473.80921626
  entropy T*S    EENTRO =         0.00000000
  eigenvalues    EBANDS =      -657.47314397
  atomic energy  EATOM  =      3769.08782378
  Solvation  Ediel_sol  =         0.00000000
  ---------------------------------------------------
  free energy    TOTEN  =       -76.84558666 eV

  energy without entropy =      -76.84558666  energy(sigma->0) =      -76.84558666


--------------------------------------------------------------------------------------------------------




--------------------------------------- Iteration      1(  13)  ---------------------------------------


    POTLOK:  cpu time    0.0040: real time    0.0040
    SETDIJ:  cpu time    0.0014: real time    0.0014
    EDDIAG:  cpu time    0.0514: real time    0.0514
  RMM-DIIS:  cpu time    0.0842: real time    0.0842
    ORTHCH:  cpu time    0.0071: real time    0.0071
 BZINTS: Fermi energy:  2.761619; 76.000000 electrons
         Band energy:-657.449436;  BLOECHL correction:  0.000000
       DOS:  cpu time    0.0014: real time    0.0014
    CHARGE:  cpu time    0.0163: real time    0.0163
    MIXING:  cpu time    0.0008: real time    0.0008
    --------------------------------------------
      LOOP:  cpu time    0.1666: real time    0.1666

 eigenvalue-minimisations  :   805
 total energy-change (2. order) :-0.8593682E-04  (-0.9412812E-04)
 number of electron      76.0000001 magnetization 
 augmentation part       -1.6940172 magnetization 

 Broyden mixing:
  rms(total) = 0.16433E-02    rms(broyden)= 0.16368E-02
  rms(prec ) = 0.17916E-02
  weight for this iteration     100.00

 eigenvalues of (default mixing * dielectric matrix)
  average eigenvalue GAMMA=   1.7511
  2.6740  2.6740  2.0638  2.0638  1.4022  1.0542  1.0384  1.0384

 Free energy of the ion-electron system (eV)
  ---------------------------------------------------
  alpha Z        PSCENC =        69.45638970
  Ewald energy   TEWEN  =     -2736.77166153
  -Hartree energ DENC   =      -655.99551373
  -exchange      EXHF   =         0.00000000
  -V(xc)+E(xc)   XCENC  =       185.30350125
  PAW double counting   =      7422.48209587    -7472.95887195
  entropy T*S    EENTRO =         0.00000000
  eigenvalues    EBANDS =      -657.44943599
  atomic energy  EATOM  =      3769.08782378
  Solvation  Ediel_sol  =         0.00000000
  ---------------------------------------------------
  free energy    TOTEN  =       -76.84567259 eV

  energy without entropy =      -76.84567259  energy(sigma->0) =      -76.84567259


--------------------------------------------------------------------------------------------------------




--------------------------------------- Iteration      1(  14)  ---------------------------------------


    POTLOK:  cpu time    0.0037: real time    0.0041
    SETDIJ:  cpu time    0.0013: real time    0.0013
    EDDIAG:  cpu time    0.0506: real time    0.0507
  RMM-DIIS:  cpu time    0.0865: real time    0.0865
    ORTHCH:  cpu time    0.0067: real time    0.0067
 BZINTS: Fermi energy:  2.759269; 76.000000 electrons
         Band energy:-657.445456;  BLOECHL correction:  0.000000
       DOS:  cpu time    0.0014: real time    0.0014
    CHARGE:  cpu time    0.0165: real time    0.0165
    MIXING:  cpu time    0.0008: real time    0.0008
    --------------------------------------------
      LOOP:  cpu time    0.1675: real time    0.1679

 eigenvalue-minimisations  :   807
 total energy-change (2. order) :-0.3893488E-04  (-0.4313879E-04)
 number of electron      76.0000001 magnetization 
 augmentation part       -1.6945185 magnetization 

 Broyden mixing:
  rms(total) = 0.41735E-03    rms(broyden)= 0.40881E-03
  rms(prec ) = 0.61230E-03
  weight for this iteration     100.00

 eigenvalues of (default mixing * dielectric matrix)
  average eigenvalue GAMMA=   1.7194
  2.6965  2.6965  2.2060  2.2060  1.6015  1.3147  0.9510  0.9510  0.8518

 Free energy of the ion-electron system (eV)
  ---------------------------------------------------
  alpha Z        PSCENC =        69.45638970
  Ewald energy   TEWEN  =     -2736.77166153
  -Hartree energ DENC   =      -656.01331340
  -exchange      EXHF   =         0.00000000
  -V(xc)+E(xc)   XCENC  =       185.30582884
  PAW double counting   =      7419.99063001    -7470.45595334
  entropy T*S    EENTRO =         0.00000000
  eigenvalues    EBANDS =      -657.44545560
  atomic energy  EATOM  =      3769.08782378
  Solvation  Ediel_sol  =         0.00000000
  ---------------------------------------------------
  free energy    TOTEN  =       -76.84571153 eV

  energy without entropy =      -76.84571153  energy(sigma->0) =      -76.84571153


--------------------------------------------------------------------------------------------------------




--------------------------------------- Iteration      1(  15)  ---------------------------------------


    POTLOK:  cpu time    0.0036: real time    0.0040
    SETDIJ:  cpu time    0.0014: real time    0.0014
    EDDIAG:  cpu time    0.0516: real time    0.0516
  RMM-DIIS:  cpu time    0.0844: real time    0.0844
    ORTHCH:  cpu time    0.0067: real time    0.0067
 BZINTS: Fermi energy:  2.756708; 76.000000 electrons
         Band energy:-657.437976;  BLOECHL correction:  0.000000
       DOS:  cpu time    0.0014: real time    0.0014
    CHARGE:  cpu time    0.0165: real time    0.0165
    MIXING:  cpu time    0.0008: real time    0.0008
    --------------------------------------------
      LOOP:  cpu time    0.1664: real time    0.1668

 eigenvalue-minimisations  :   797
 total energy-change (2. order) :-0.2474807E-04  (-0.2986114E-04)
 number of electron      76.0000001 magnetization 
 augmentation part       -1.6948314 magnetization 

 Broyden mixing:
  rms(total) = 0.22760E-03    rms(broyden)= 0.22072E-03
  rms(prec ) = 0.28415E-03
  weight for this iteration     100.00

 eigenvalues of (default mixing * dielectric matrix)
  average eigenvalue GAMMA=   1.6207
  2.9297  2.5113  2.2935  2.2935  1.6621  1.3162  0.9910  0.8996  0.8365  0.4733

 Free energy of the ion-electron system (eV)
  ---------------------------------------------------
  alpha Z        PSCENC =        69.45638970
  Ewald energy   TEWEN  =     -2736.77166153
  -Hartree energ DENC   =      -656.02402461
  -exchange      EXHF   =         0.00000000
  -V(xc)+E(xc)   XCENC  =       185.30656370
  PAW double counting   =      7419.88801413    -7470.35086502
  entropy T*S    EENTRO =         0.00000000
  eigenvalues    EBANDS =      -657.43797643
  atomic energy  EATOM  =      3769.08782378
  Solvation  Ediel_sol  =         0.00000000
  ---------------------------------------------------
  free energy    TOTEN  =       -76.84573628 eV

  energy without entropy =      -76.84573628  energy(sigma->0) =      -76.84573628


--------------------------------------------------------------------------------------------------------




--------------------------------------- Iteration      1(  16)  ---------------------------------------


    POTLOK:  cpu time    0.0038: real time    0.0042
    SETDIJ:  cpu time    0.0014: real time    0.0014
    EDDIAG:  cpu time    0.0511: real time    0.0511
  RMM-DIIS:  cpu time    0.0733: real time    0.0733
    ORTHCH:  cpu time    0.0067: real time    0.0067
 BZINTS: Fermi energy:  2.754173; 76.000000 electrons
         Band energy:-657.436557;  BLOECHL correction:  0.000000
       DOS:  cpu time    0.0014: real time    0.0014
    --------------------------------------------
      LOOP:  cpu time    0.1376: real time    0.1380

 eigenvalue-minimisations  :   688
 total energy-change (2. order) :-0.1276983E-04  (-0.1562059E-04)
 number of electron      76.0000001 magnetization 
 augmentation part       -1.6948314 magnetization 

 Free energy of the ion-electron system (eV)
  ---------------------------------------------------
  alpha Z        PSCENC =        69.45638970
  Ewald energy   TEWEN  =     -2736.77166153
  -Hartree energ DENC   =      -656.02611983
  -exchange      EXHF   =         0.00000000
  -V(xc)+E(xc)   XCENC  =       185.30676151
  PAW double counting   =      7419.82938693    -7470.29177276
  entropy T*S    EENTRO =         0.00000000
  eigenvalues    EBANDS =      -657.43655686
  atomic energy  EATOM  =      3769.08782378
  Solvation  Ediel_sol  =         0.00000000
  ---------------------------------------------------
  free energy    TOTEN  =       -76.84574905 eV

  energy without entropy =      -76.84574905  energy(sigma->0) =      -76.84574905


--------------------------------------------------------------------------------------------------------




 average (electrostatic) potential at core
  the test charge radii are     0.9587  0.9698  0.7079
  (the norm of the test charge is              1.0000)
       1 -88.0548       2 -88.0548       3 -88.1043       4 -88.1043       5 -88.1043
       6 -88.1043       7 -88.0645       8 -88.0645       9 -88.0290      10 -88.0290
      11 -64.3674      12 -64.3674      13 -63.5682      14 -63.5682      15 -63.5682
      16 -63.5682
 
 
 
 E-fermi :   2.7542     XC(G=0):  -9.1726     alpha+bet :-10.6304


 k-point     1 :       0.1250    0.1250    0.1250
  band No.  band energies     occupation 
      1     -41.5126      2.00000
      2     -41.5126      2.00000
      3     -40.7396      2.00000
      4     -40.7393      2.00000
      5     -40.7389      2.00000
      6     -40.7387      2.00000
      7     -12.4295      2.00000
      8     -12.2587      2.00000
      9      -9.4938      2.00000
     10      -9.3538      2.00000
     11      -9.3152      2.00000
     12      -9.1097      2.00000
     13      -9.0530      2.00000
     14      -8.9535      2.00000
     15      -5.4336      2.00000
     16      -4.8284      2.00000
     17      -2.5486      2.00000
     18      -2.3638      2.00000
     19      -2.2447      2.00000
     20      -2.1004      2.00000
     21      -1.9554      2.00000
     22      -1.8560      2.00000
     23      -0.1418      2.00000
     24      -0.0099      2.00000
     25       0.1983      2.00000
     26       0.4701      2.00000
     27       0.6761      2.00000
     28       0.9057      2.00000
     29       1.1111      2.00000
     30       1.2800      2.00000
     31       1.5166      2.00000
     32       1.5512      2.00000
     33       1.8082      2.00000
     34       1.9488      2.00000
     35       2.1091      2.00000
     36       2.2114      2.00000
     37       2.4349      2.00000
     38       2.6598      2.00000
     39       5.7701      0.00000
     40       6.0708      0.00000
     41       6.4051      0.00000
     42       6.5983      0.00000
     43       6.8839      0.00000
     44       7.2257      0.00000
     45       7.4425      0.00000
     46       7.5549      0.00000
     47       8.1338      0.00000
     48       8.7800      0.00000

 k-point     2 :       0.3750    0.1250    0.1250
  band No.  band energies     occupation 
      1     -41.5126      2.00000
      2     -41.5126      2.00000
      3     -40.7395      2.00000
      4     -40.7393      2.00000
      5     -40.7389      2.00000
      6     -40.7388      2.00000
      7     -12.3819      2.00000
      8     -12.3112      2.00000
      9      -9.4242      2.00000
     10      -9.3497      2.00000
     11      -9.2964      2.00000
     12      -9.2100      2.00000
     13      -9.0289      2.00000
     14      -8.9821      2.00000
     15      -5.2468      2.00000
     16      -4.9964      2.00000
     17      -2.4939      2.00000
     18      -2.4261      2.00000
     19      -2.2159      2.00000
     20      -2.1152      2.00000
     21      -1.9404      2.00000
     22      -1.8913      2.00000
     23      -0.1437      2.00000
     24      -0.0594      2.00000
     25       0.4282      2.00000
     26       0.5395      2.00000
     27       0.7459      2.00000
     28       0.9203      2.00000
     29       1.0551      2.00000
     30       1.2271      2.00000
     31       1.4597      2.00000
     32       1.5848      2.00000
     33       1.7423      2.00000
     34       1.9218      2.00000
     35       1.9537      2.00000
     36       2.0865      2.00000
     37       2.4011      2.00000
     38       2.5104      2.00000
     39       5.9744      0.00000
     40       6.1669      0.00000
     41       6.5980      0.00000
     42       6.7571      0.00000
     43       7.0923      0.00000
     44       7.1973      0.00000
     45       7.3208      0.00000
     46       7.4719      0.00000
     47       8.4586      0.00000
     48       8.5181      0.00000

 k-point     3 :       0.1250    0.3750    0.1250
  band No.  band energies     occupation 
      1     -41.5127      2.00000
      2     -41.5126      2.00000
      3     -40.7395      2.00000
      4     -40.7394      2.00000
      5     -40.7389      2.00000
      6     -40.7388      2.00000
      7     -12.3727      2.00000
      8     -12.2694      2.00000
      9      -9.4999      2.00000
     10      -9.4633      2.00000
     11      -9.3411      2.00000
     12      -9.1407      2.00000
     13      -9.0647      2.00000
     14      -8.9632      2.00000
     15      -5.2246      2.00000
     16      -4.7777      2.00000
     17      -2.5604      2.00000
     18      -2.3436      2.00000
     19      -2.2429      2.00000
     20      -2.0884      2.00000
     21      -1.9225      2.00000
     22      -1.7866      2.00000
     23      -0.0797      2.00000
     24       0.0368      2.00000
     25       0.3368      2.00000
     26       0.4563      2.00000
     27       0.5216      2.00000
     28       0.7792      2.00000
     29       1.0172      2.00000
     30       1.1827      2.00000
     31       1.4626      2.00000
     32       1.6596      2.00000
     33       1.7786      2.00000
     34       1.9536      2.00000
     35       2.1269      2.00000
     36       2.2648      2.00000
     37       2.3901      2.00000
     38       2.6025      2.00000
     39       5.5668      0.00000
     40       6.1408      0.00000
     41       6.5226      0.00000
     42       6.5966      0.00000
     43       6.8940      0.00000
     44       7.0303      0.00000
     45       7.1602      0.00000
     46       7.5063      0.00000
     47       8.4173      0.00000
     48       8.6721      0.00000

 k-point     4 :       0.3750    0.3750    0.1250
  band No.  band energies     occupation 
      1     -41.5126      2.00000
      2     -41.5126      2.00000
      3     -40.7394      2.00000
      4     -40.7394      2.00000
      5     -40.7390      2.00000
      6     -40.7389      2.00000
      7     -12.3427      2.00000
      8     -12.2999      2.00000
      9      -9.5039      2.00000
     10      -9.4814      2.00000
     11      -9.2713      2.00000
     12      -9.1852      2.00000
     13      -9.0431      2.00000
     14      -9.0008      2.00000
     15      -5.0804      2.00000
     16      -4.8948      2.00000
     17      -2.4763      2.00000
     18      -2.3830      2.00000
     19      -2.2043      2.00000
     20      -2.1612      2.00000
     21      -1.8566      2.00000
     22      -1.8003      2.00000
     23      -0.0603      2.00000
     24       0.0447      2.00000
     25       0.1460      2.00000
     26       0.3452      2.00000
     27       0.6674      2.00000
     28       0.7601      2.00000
     29       0.9067      2.00000
     30       1.1288      2.00000
     31       1.5218      2.00000
     32       1.6250      2.00000
     33       1.8137      2.00000
     34       1.9490      2.00000
     35       2.1218      2.00000
     36       2.2298      2.00000
     37       2.4551      2.00000
     38       2.5895      2.00000
     39       5.7581      0.00000
     40       6.0169      0.00000
     41       6.6181      0.00000
     42       6.7443      0.00000
     43       7.0221      0.00000
     44       7.1721      0.00000
     45       7.3871      0.00000
     46       7.5024      0.00000
     47       8.5773      0.00000
     48       8.7119      0.00000

 k-point     5 :       0.1250    0.1250    0.3750
  band No.  band energies     occupation 
      1     -41.5126      2.00000
      2     -41.5126      2.00000
      3     -40.7395      2.00000
      4     -40.7394      2.00000
      5     -40.7389      2.00000
      6     -40.7388      2.00000
      7     -12.3381      2.00000
      8     -12.2634      2.00000
      9      -9.4795      2.00000
     10      -9.3894      2.00000
     11      -9.3313      2.00000
     12      -9.2121      2.00000
     13      -9.1147      2.00000
     14      -9.1050      2.00000
     15      -5.1593      2.00000
     16      -4.8880      2.00000
     17      -2.2576      2.00000
     18      -2.1660      2.00000
     19      -2.0973      2.00000
     20      -2.0149      2.00000
     21      -1.9361      2.00000
     22      -1.7882      2.00000
     23      -0.0088      2.00000
     24       0.0575      2.00000
     25       0.1277      2.00000
     26       0.2988      2.00000
     27       0.4416      2.00000
     28       0.6306      2.00000
     29       1.0933      2.00000
     30       1.2853      2.00000
     31       1.5029      2.00000
     32       1.6125      2.00000
     33       1.7321      2.00000
     34       1.8629      2.00000
     35       2.0208      2.00000
     36       2.2501      2.00000
     37       2.4388      2.00000
     38       2.6274      2.00000
     39       5.3899      0.00000
     40       5.7569      0.00000
     41       6.4148      0.00000
     42       6.5665      0.00000
     43       7.1058      0.00000
     44       7.2258      0.00000
     45       7.3672      0.00000
     46       7.5089      0.00000
     47       8.3171      0.00000
     48       8.8114      0.00000

 k-point     6 :       0.3750    0.1250    0.3750
  band No.  band energies     occupation 
      1     -41.5126      2.00000
      2     -41.5126      2.00000
      3     -40.7394      2.00000
      4     -40.7393      2.00000
      5     -40.7390      2.00000
      6     -40.7389      2.00000
      7     -12.3153      2.00000
      8     -12.2843      2.00000
      9      -9.5090      2.00000
     10      -9.4672      2.00000
     11      -9.2622      2.00000
     12      -9.2276      2.00000
     13      -9.0908      2.00000
     14      -9.0733      2.00000
     15      -5.0828      2.00000
     16      -4.9701      2.00000
     17      -2.2932      2.00000
     18      -2.2638      2.00000
     19      -2.0558      2.00000
     20      -1.9706      2.00000
     21      -1.8329      2.00000
     22      -1.7871      2.00000
     23      -0.0099      2.00000
     24       0.0160      2.00000
     25       0.2584      2.00000
     26       0.3912      2.00000
     27       0.5154      2.00000
     28       0.6411      2.00000
     29       1.0863      2.00000
     30       1.1494      2.00000
     31       1.4204      2.00000
     32       1.5084      2.00000
     33       1.7115      2.00000
     34       1.7584      2.00000
     35       1.9162      2.00000
     36       2.0222      2.00000
     37       2.5323      2.00000
     38       2.6543      2.00000
     39       5.5593      0.00000
     40       5.7259      0.00000
     41       6.6649      0.00000
     42       6.8025      0.00000
     43       7.0653      0.00000
     44       7.1351      0.00000
     45       7.4778      0.00000
     46       7.6075      0.00000
     47       8.3627      0.00000
     48       8.7465      0.00000

 k-point     7 :       0.1250    0.3750    0.3750
  band No.  band energies     occupation 
      1     -41.5127      2.00000
      2     -41.5126      2.00000
      3     -40.7395      2.00000
      4     -40.7394      2.00000
      5     -40.7388      2.00000
      6     -40.7388      2.00000
      7     -12.2982      2.00000
      8     -12.2529      2.00000
      9      -9.4716      2.00000
     10      -9.4304      2.00000
     11      -9.3506      2.00000
     12      -9.2902      2.00000
     13      -9.1735      2.00000
     14      -9.1234      2.00000
     15      -4.9674      2.00000
     16      -4.7744      2.00000
     17      -2.2605      2.00000
     18      -2.2118      2.00000
     19      -2.1243      2.00000
     20      -2.0612      2.00000
     21      -1.8176      2.00000
     22      -1.6644      2.00000
     23      -0.0544      2.00000
     24       0.1872      2.00000
     25       0.2712      2.00000
     26       0.4333      2.00000
     27       0.5956      2.00000
     28       0.7056      2.00000
     29       0.8900      2.00000
     30       0.9939      2.00000
     31       1.1421      2.00000
     32       1.2594      2.00000
     33       1.6281      2.00000
     34       2.0607      2.00000
     35       2.2058      2.00000
     36       2.2970      2.00000
     37       2.4309      2.00000
     38       2.5095      2.00000
     39       5.5335      0.00000
     40       5.8646      0.00000
     41       6.4838      0.00000
     42       6.7340      0.00000
     43       6.7973      0.00000
     44       6.9461      0.00000
     45       7.0862      0.00000
     46       7.2144      0.00000
     47       8.4916      0.00000
     48       8.8717      0.00000

 k-point     8 :       0.3750    0.3750    0.3750
  band No.  band energies     occupation 
      1     -41.5126      2.00000
      2     -41.5126      2.00000
      3     -40.7394      2.00000
      4     -40.7394      2.00000
      5     -40.7389      2.00000
      6     -40.7389      2.00000
      7     -12.2840      2.00000
      8     -12.2653      2.00000
      9      -9.4606      2.00000
     10      -9.4448      2.00000
     11      -9.3520      2.00000
     12      -9.3205      2.00000
     13      -9.1488      2.00000
     14      -9.1249      2.00000
     15      -4.8884      2.00000
     16      -4.8075      2.00000
     17      -2.2636      2.00000
     18      -2.2316      2.00000
     19      -2.0481      2.00000
     20      -1.9668      2.00000
     21      -1.8215      2.00000
     22      -1.7399      2.00000
     23      -0.1399      2.00000
     24      -0.0194      2.00000
     25       0.2494      2.00000
     26       0.3390      2.00000
     27       0.5750      2.00000
     28       0.6108      2.00000
     29       0.9772      2.00000
     30       1.0503      2.00000
     31       1.3007      2.00000
     32       1.3628      2.00000
     33       1.6356      2.00000
     34       1.8720      2.00000
     35       2.2005      2.00000
     36       2.2405      2.00000
     37       2.4726      2.00000
     38       2.5663      2.00000
     39       5.6951      0.00000
     40       5.8585      0.00000
     41       6.6149      0.00000
     42       6.6300      0.00000
     43       6.9513      0.00000
     44       7.1096      0.00000
     45       7.2604      0.00000
     46       7.3722      0.00000
     47       8.5324      0.00000
     48       8.7379      0.00000


--------------------------------------------------------------------------------------------------------


 soft charge-density along one line, spin component           1
         0         1         2         3         4         5         6         7         8         9
 total charge-density along one line
 
 pseudopotential strength for first ion, spin component:           1
 29.995  37.424   0.002   0.002   0.000   0.003   0.003   0.000
 37.424  46.698   0.002   0.003   0.000   0.003   0.004   0.000
  0.002   0.002   6.576  -0.001  -0.000  10.183  -0.001  -0.000
  0.002   0.003  -0.001   6.576   0.000  -0.001  10.182   0.000
  0.000   0.000  -0.000   0.000   6.575  -0.000   0.000  10.181
  0.003   0.003  10.183  -0.001  -0.000  15.786  -0.001  -0.000
  0.003   0.004  -0.001  10.182   0.000  -0.001  15.786   0.000
  0.000   0.000  -0.000   0.000  10.181  -0.000   0.000  15.783
 total augmentation occupancy for first ion, spin component:           1
 11.162  -6.448   0.093   0.243   0.000  -0.030  -0.107   0.000
 -6.448   4.200  -0.074  -0.193   0.000   0.020   0.079   0.000
  0.093  -0.074   4.363  -0.065   0.000  -1.462   0.033   0.000
  0.243  -0.193  -0.065   4.530   0.000   0.033  -1.532   0.000
  0.000   0.000   0.000   0.000   4.251   0.000   0.000  -1.401
 -0.030   0.020  -1.462   0.033   0.000   0.529  -0.016   0.000
 -0.107   0.079   0.033  -1.532   0.000  -0.016   0.560   0.000
  0.000   0.000   0.000   0.000  -1.401   0.000   0.000   0.502


------------------------ aborting loop because EDIFF is reached ----------------------------------------


    CHARGE:  cpu time    0.0165: real time    0.0165
    FORLOC:  cpu time    0.0008: real time    0.0008
    FORNL :  cpu time    0.0359: real time    0.0361
    STRESS:  cpu time    0.1027: real time    0.1033
    FORCOR:  cpu time    0.0035: real time    0.0035
    FORHAR:  cpu time    0.0024: real time    0.0024
    MIXING:  cpu time    0.0006: real time    0.0006
    OFIELD:  cpu time    0.0001: real time    0.0002

  FORCE on cell =-STRESS in cart. coord.  units (eV):
  Direction    XX          YY          ZZ          XY          YZ          ZX
  --------------------------------------------------------------------------------------
  Alpha Z    69.45639    69.45639    69.45639
  Ewald    -921.79159  -981.70593  -833.27920    -0.00000    -0.00000     0.00000
  Hartree   216.76274   177.77641   261.50050    -0.00000     0.00000    -0.00000
  E(xc)    -277.07651  -277.01343  -277.04911     0.00000     0.00000    -0.00000
  Local    -647.47997  -545.52678  -773.60801     0.00000     0.00000     0.00000
  n-local   611.79345   610.68399   610.93882    -0.42292     0.05926    -0.00539
  augment   -43.13190   -42.85000   -42.44353     0.00000    -0.00000    -0.00000
  Kinetic   990.51644   989.12957   984.44920    -0.01953    -0.11349     0.05134
  Fock        0.00000     0.00000     0.00000     0.00000     0.00000     0.00000
  -------------------------------------------------------------------------------------
  Total      -0.95095    -0.04977    -0.03494     0.00000     0.00000     0.00000
  in kB      -5.36275    -0.28068    -0.19706     0.00000     0.00000     0.00000
  external pressure =       -1.95 kB  Pullay stress =        0.00 kB


 VOLUME and BASIS-vectors are now :
 -----------------------------------------------------------------------------
  energy-cutoff  :      420.00
  volume of cell :      284.11
      direct lattice vectors                 reciprocal lattice vectors
     7.816895680  0.000000000  0.000000000     0.127928022  0.000000000  0.000000000
[...]
     17      -2.5519      2.00000
     18      -2.3276      2.00000
     19      -2.2245      2.00000
     20      -2.0606      2.00000
     21      -1.8792      2.00000
     22      -1.7578      2.00000
     23      -0.0665      2.00000
     24       0.0550      2.00000
     25       0.3675      2.00000
     26       0.4587      2.00000
     27       0.5559      2.00000
     28       0.7902      2.00000
     29       1.0350      2.00000
     30       1.2014      2.00000
     31       1.4736      2.00000
     32       1.6702      2.00000
     33       1.7939      2.00000
     34       1.9737      2.00000
     35       2.1557      2.00000
     36       2.2584      2.00000
     37       2.4120      2.00000
     38       2.5939      2.00000
     39       5.5964      0.00000
     40       6.1735      0.00000
     41       6.5667      0.00000
     42       6.6046      0.00000
     43       6.9061      0.00000
     44       7.0480      0.00000
     45       7.1696      0.00000
     46       7.5133      0.00000
     47       8.4536      0.00000
     48       8.5806      0.00000

 k-point     4 :       0.3750    0.3750    0.1250
  band No.  band energies     occupation 
      1     -41.4184      2.00000
      2     -41.4184      2.00000
      3     -40.6947      2.00000
      4     -40.6946      2.00000
      5     -40.6941      2.00000
      6     -40.6940      2.00000
      7     -12.3179      2.00000
      8     -12.2738      2.00000
      9      -9.4787      2.00000
     10      -9.4559      2.00000
     11      -9.2611      2.00000
     12      -9.1723      2.00000
     13      -9.0229      2.00000
     14      -8.9793      2.00000
     15      -5.0628      2.00000
     16      -4.8781      2.00000
     17      -2.4652      2.00000
     18      -2.3696      2.00000
     19      -2.1828      2.00000
     20      -2.1362      2.00000
     21      -1.8184      2.00000
     22      -1.7628      2.00000
     23      -0.0401      2.00000
     24       0.0725      2.00000
     25       0.1682      2.00000
     26       0.3748      2.00000
     27       0.6557      2.00000
     28       0.7545      2.00000
     29       0.9283      2.00000
     30       1.1458      2.00000
     31       1.5351      2.00000
     32       1.6376      2.00000
     33       1.8310      2.00000
     34       1.9725      2.00000
     35       2.1340      2.00000
     36       2.2453      2.00000
     37       2.4554      2.00000
     38       2.5884      2.00000
     39       5.7873      0.00000
     40       6.0448      0.00000
     41       6.6566      0.00000
     42       6.7726      0.00000
     43       7.0260      0.00000
     44       7.1687      0.00000
     45       7.3974      0.00000
     46       7.5118      0.00000
     47       8.5883      0.00000
     48       8.6347      0.00000

 k-point     5 :       0.1250    0.1250    0.3750
  band No.  band energies     occupation 
      1     -41.4184      2.00000
      2     -41.4184      2.00000
      3     -40.6947      2.00000
      4     -40.6946      2.00000
      5     -40.6940      2.00000
      6     -40.6939      2.00000
      7     -12.3133      2.00000
      8     -12.2374      2.00000
      9      -9.4661      2.00000
     10      -9.3776      2.00000
     11      -9.3076      2.00000
     12      -9.1860      2.00000
     13      -9.0931      2.00000
     14      -9.0826      2.00000
     15      -5.1437      2.00000
     16      -4.8712      2.00000
     17      -2.2466      2.00000
     18      -2.1428      2.00000
     19      -2.0712      2.00000
     20      -1.9855      2.00000
     21      -1.9193      2.00000
     22      -1.7767      2.00000
     23       0.0100      2.00000
     24       0.0773      2.00000
     25       0.1513      2.00000
     26       0.3286      2.00000
     27       0.4513      2.00000
     28       0.6255      2.00000
     29       1.0784      2.00000
     30       1.2823      2.00000
     31       1.5279      2.00000
     32       1.6470      2.00000
     33       1.7594      2.00000
     34       1.9001      2.00000
     35       2.0511      2.00000
     36       2.2772      2.00000
     37       2.4645      2.00000
     38       2.6350      2.00000
     39       5.3955      0.00000
     40       5.7991      0.00000
     41       6.4412      0.00000
     42       6.5781      0.00000
     43       7.1155      0.00000
     44       7.2343      0.00000
     45       7.3916      0.00000
     46       7.5072      0.00000
     47       8.2927      0.00000
     48       8.6382      0.00000

 k-point     6 :       0.3750    0.1250    0.3750
  band No.  band energies     occupation 
      1     -41.4184      2.00000
      2     -41.4184      2.00000
      3     -40.6946      2.00000
      4     -40.6946      2.00000
      5     -40.6941      2.00000
      6     -40.6940      2.00000
      7     -12.2900      2.00000
      8     -12.2585      2.00000
      9      -9.4967      2.00000
     10      -9.4551      2.00000
     11      -9.2400      2.00000
     12      -9.2051      2.00000
     13      -9.0681      2.00000
     14      -9.0470      2.00000
     15      -5.0661      2.00000
     16      -4.9528      2.00000
     17      -2.2773      2.00000
     18      -2.2434      2.00000
     19      -2.0308      2.00000
     20      -1.9436      2.00000
     21      -1.8119      2.00000
     22      -1.7686      2.00000
     23       0.0077      2.00000
     24       0.0339      2.00000
     25       0.2732      2.00000
     26       0.4085      2.00000
     27       0.5361      2.00000
     28       0.6501      2.00000
     29       1.0780      2.00000
     30       1.1354      2.00000
     31       1.4633      2.00000
     32       1.5388      2.00000
     33       1.7327      2.00000
     34       1.7804      2.00000
     35       1.9313      2.00000
     36       2.0316      2.00000
     37       2.5584      2.00000
     38       2.6743      2.00000
     39       5.5821      0.00000
     40       5.7597      0.00000
     41       6.6759      0.00000
     42       6.8064      0.00000
     43       7.0533      0.00000
     44       7.1460      0.00000
     45       7.4886      0.00000
     46       7.6422      0.00000
     47       8.4127      0.00000
     48       8.6985      0.00000

 k-point     7 :       0.1250    0.3750    0.3750
  band No.  band energies     occupation 
      1     -41.4185      2.00000
      2     -41.4184      2.00000
      3     -40.6947      2.00000
      4     -40.6947      2.00000
      5     -40.6940      2.00000
      6     -40.6939      2.00000
      7     -12.2733      2.00000
      8     -12.2267      2.00000
      9      -9.4608      2.00000
     10      -9.4225      2.00000
     11      -9.3263      2.00000
     12      -9.2597      2.00000
     13      -9.1515      2.00000
     14      -9.1004      2.00000
     15      -4.9547      2.00000
     16      -4.7594      2.00000
     17      -2.2386      2.00000
     18      -2.1955      2.00000
     19      -2.0912      2.00000
     20      -2.0304      2.00000
     21      -1.7892      2.00000
     22      -1.6479      2.00000
     23      -0.0413      2.00000
     24       0.1938      2.00000
     25       0.2737      2.00000
     26       0.4422      2.00000
     27       0.6059      2.00000
     28       0.7113      2.00000
     29       0.9289      2.00000
     30       1.0151      2.00000
     31       1.1500      2.00000
     32       1.2781      2.00000
     33       1.6508      2.00000
     34       2.0721      2.00000
     35       2.2283      2.00000
     36       2.3231      2.00000
     37       2.4550      2.00000
     38       2.5165      2.00000
     39       5.5408      0.00000
     40       5.8844      0.00000
     41       6.5124      0.00000
     42       6.7596      0.00000
     43       6.8022      0.00000
     44       6.9771      0.00000
     45       7.1088      0.00000
     46       7.2270      0.00000
     47       8.5039      0.00000
     48       8.6685      0.00000

 k-point     8 :       0.3750    0.3750    0.3750
  band No.  band energies     occupation 
      1     -41.4185      2.00000
      2     -41.4184      2.00000
      3     -40.6946      2.00000
      4     -40.6946      2.00000
      5     -40.6941      2.00000
      6     -40.6940      2.00000
      7     -12.2586      2.00000
      8     -12.2393      2.00000
      9      -9.4506      2.00000
     10      -9.4359      2.00000
     11      -9.3282      2.00000
     12      -9.2947      2.00000
     13      -9.1251      2.00000
     14      -9.1002      2.00000
     15      -4.8729      2.00000
     16      -4.7910      2.00000
     17      -2.2388      2.00000
     18      -2.2033      2.00000
     19      -2.0231      2.00000
     20      -1.9423      2.00000
     21      -1.7896      2.00000
     22      -1.7163      2.00000
     23      -0.1228      2.00000
     24      -0.0031      2.00000
     25       0.2484      2.00000
     26       0.3346      2.00000
     27       0.5688      2.00000
     28       0.6039      2.00000
     29       1.0073      2.00000
     30       1.0847      2.00000
     31       1.3100      2.00000
     32       1.3773      2.00000
     33       1.6586      2.00000
     34       1.8850      2.00000
     35       2.2281      2.00000
     36       2.2608      2.00000
     37       2.4888      2.00000
     38       2.5809      2.00000
     39       5.7043      0.00000
     40       5.8666      0.00000
     41       6.6342      0.00000
     42       6.6525      0.00000
     43       6.9985      0.00000
     44       7.1233      0.00000
     45       7.2910      0.00000
     46       7.3859      0.00000
     47       8.5399      0.00000
     48       8.6874      0.00000


--------------------------------------------------------------------------------------------------------


 soft charge-density along one line, spin component           1
         0         1         2         3         4         5         6         7         8         9
 total charge-density along one line
 
 pseudopotential strength for first ion, spin component:           1
 29.991  37.419   0.002   0.001   0.000   0.002   0.002   0.000
 37.419  46.691   0.002   0.002   0.000   0.003   0.002   0.000
  0.002   0.002   6.575  -0.001  -0.000  10.181  -0.001  -0.000
  0.001   0.002  -0.001   6.575   0.000  -0.001  10.181   0.000
  0.000   0.000  -0.000   0.000   6.574  -0.000   0.000  10.179
  0.002   0.003  10.181  -0.001  -0.000  15.784  -0.001  -0.000
  0.002   0.002  -0.001  10.181   0.000  -0.001  15.784   0.000
  0.000   0.000  -0.000   0.000  10.179  -0.000   0.000  15.781
 total augmentation occupancy for first ion, spin component:           1
 11.120  -6.421   0.103   0.277   0.000  -0.033  -0.127   0.000
 -6.421   4.185  -0.082  -0.215   0.000   0.022   0.092   0.000
  0.103  -0.082   4.350  -0.068   0.000  -1.455   0.035   0.000
  0.277  -0.215  -0.068   4.520   0.000   0.035  -1.529   0.000
  0.000   0.000   0.000   0.000   4.237   0.000   0.000  -1.393
 -0.033   0.022  -1.455   0.035   0.000   0.526  -0.017   0.000
 -0.127   0.092   0.035  -1.529   0.000  -0.017   0.559   0.000
  0.000   0.000   0.000   0.000  -1.393   0.000   0.000   0.499


------------------------ aborting loop because EDIFF is reached ----------------------------------------


    CHARGE:  cpu time    0.0173: real time    0.0173
    FORLOC:  cpu time    0.0008: real time    0.0008
    FORNL :  cpu time    0.0354: real time    0.0354
    STRESS:  cpu time    0.1036: real time    0.1036
    FORCOR:  cpu time    0.0031: real time    0.0031
    FORHAR:  cpu time    0.0024: real time    0.0024
    MIXING:  cpu time    0.0004: real time    0.0004
    OFIELD:  cpu time    0.0000: real time    0.0000

  FORCE on cell =-STRESS in cart. coord.  units (eV):
  Direction    XX          YY          ZZ          XY          YZ          ZX
  --------------------------------------------------------------------------------------
  Alpha Z    69.74334    69.74334    69.74334
  Ewald    -918.77911  -993.40947  -827.06839    -0.00000    -0.00000     0.00000
  Hartree   218.75229   173.30366   263.98517    -0.00000     0.00000    -0.00000
  E(xc)    -277.17535  -277.09948  -277.14042     0.00000     0.00000    -0.00000
  Local    -652.95935  -530.20801  -781.76455     0.00000     0.00000     0.00000
  n-local   610.73218   609.46539   609.84411    -0.43582     0.05472    -0.00668
  augment   -43.57900   -43.27206   -42.75189     0.00000    -0.00000     0.00000
  Kinetic   993.35333   991.49790   985.06183    -0.01665    -0.10844     0.05185
  Fock        0.00000     0.00000     0.00000     0.00000     0.00000     0.00000
  -------------------------------------------------------------------------------------
  Total       0.08832     0.02128    -0.09080     0.00000     0.00000     0.00000
  in kB       0.50014     0.12050    -0.51416     0.00000     0.00000     0.00000
  external pressure =        0.04 kB  Pullay stress =        0.00 kB


 VOLUME and BASIS-vectors are now :
 -----------------------------------------------------------------------------
  energy-cutoff  :      420.00
  volume of cell :      282.94
      direct lattice vectors                 reciprocal lattice vectors
     7.772432451  0.000000000  0.000000000     0.128659851  0.000000000  0.000000000
     0.000000000  6.132221793  0.000000000     0.000000000  0.163073032  0.000000000
     0.000000000  0.000000000  5.936283873     0.000000000  0.000000000  0.168455556

  length of vectors
     7.772432451  6.132221793  5.936283873     0.128659851  0.163073032  0.168455556


 FORCES acting on ions
    electron-ion (+dipol)            ewald-force                    non-local-force                 convergence-correction
 -----------------------------------------------------------------------------------------------
   -.296E-09 -.124E+02 0.173E+02   -.416E-08 0.121E+02 -.172E+02   0.000E+00 0.283E+00 -.129E+00   -.464E-12 0.182E-02 -.329E-02
   0.558E-08 0.124E+02 0.173E+02   0.133E-08 -.121E+02 -.172E+02   0.000E+00 -.283E+00 -.129E+00   -.348E-12 -.182E-02 -.329E-02
   -.684E+02 0.732E+01 -.869E+01   0.695E+02 -.865E+01 0.102E+02   -.112E+01 0.132E+01 -.154E+01   0.442E-02 0.185E-02 0.433E-02
   0.684E+02 -.732E+01 -.869E+01   -.695E+02 0.865E+01 0.102E+02   0.112E+01 -.132E+01 -.154E+01   -.442E-02 -.185E-02 0.433E-02
   -.684E+02 -.732E+01 -.869E+01   0.695E+02 0.865E+01 0.102E+02   -.112E+01 -.132E+01 -.154E+01   0.442E-02 -.185E-02 0.433E-02
   0.684E+02 0.732E+01 -.869E+01   -.695E+02 -.865E+01 0.102E+02   0.112E+01 0.132E+01 -.154E+01   -.442E-02 0.185E-02 0.433E-02
   0.255E-09 -.459E+02 0.496E+02   -.378E-08 0.478E+02 -.520E+02   0.000E+00 -.186E+01 0.243E+01   -.827E-13 0.979E-03 0.582E-02
   0.141E-07 0.459E+02 0.496E+02   0.186E-08 -.478E+02 -.520E+02   0.000E+00 0.186E+01 0.243E+01   0.303E-13 -.979E-03 0.582E-02
   0.155E-09 -.548E+02 -.476E+02   -.335E-08 0.563E+02 0.480E+02   0.000E+00 -.155E+01 -.463E+00   -.230E-13 0.428E-02 0.957E-03
   0.145E-07 0.548E+02 -.476E+02   0.196E-08 -.563E+02 0.480E+02   0.000E+00 0.155E+01 -.463E+00   -.399E-13 -.428E-02 0.957E-03
   -.164E-09 0.281E+02 -.157E+02   -.244E-08 -.272E+02 0.155E+02   0.000E+00 -.870E+00 0.216E+00   0.239E-12 -.887E-03 -.434E-03
   0.921E-08 -.281E+02 -.157E+02   0.887E-09 0.272E+02 0.155E+02   0.000E+00 0.870E+00 0.216E+00   -.320E-12 0.887E-03 -.434E-03
   -.898E+01 -.209E+02 0.811E+01   0.912E+01 0.203E+02 -.739E+01   -.143E+00 0.607E+00 -.709E+00   0.157E-02 0.108E-02 -.273E-02
   0.898E+01 0.209E+02 0.811E+01   -.912E+01 -.203E+02 -.739E+01   0.143E+00 -.607E+00 -.709E+00   -.157E-02 -.108E-02 -.273E-02
   -.898E+01 0.209E+02 0.811E+01   0.912E+01 -.203E+02 -.739E+01   -.143E+00 -.607E+00 -.709E+00   0.157E-02 -.108E-02 -.273E-02
   0.898E+01 -.209E+02 0.811E+01   -.912E+01 0.203E+02 -.739E+01   0.143E+00 0.607E+00 -.709E+00   -.157E-02 0.108E-02 -.273E-02
 -----------------------------------------------------------------------------------------------
   0.135E-06 -.269E-06 0.489E+01   0.338E-13 -.213E-13 0.169E-13   0.000E+00 0.111E-15 -.490E+01   -.202E-11 0.298E-11 0.125E-01
 
 
 POSITION                                       TOTAL-FORCE (eV/Angst)
 -----------------------------------------------------------------------------------
      0.00000      4.73308      2.61424         0.000000      0.000337     -0.026918
      3.88622      1.39914      5.58239         0.000000     -0.000337     -0.026918
      1.62243      3.71084      3.31847        -0.002062     -0.007033     -0.009133
      2.26379      2.42138      0.35033         0.002062      0.007033     -0.009133
      5.50864      2.42138      0.35033        -0.002062      0.007033     -0.009133
      6.15001      3.71084      3.31847         0.002062     -0.007033     -0.009133
      0.00000      4.96269      0.59410         0.000000     -0.006803      0.029288
      3.88622      1.16953      3.56224         0.000000      0.006803      0.029288
      0.00000      0.42021      3.51341         0.000000     -0.007121     -0.000821
      3.88622      5.71201      0.54527         0.000000      0.007121     -0.000821
      0.00000      2.65342      5.05656         0.000000      0.010831      0.003850
      3.88622      3.47880      2.08842         0.000000     -0.010831      0.003850
      2.07495      4.71355      5.41683        -0.002964      0.001051      0.006433
      1.81127      1.41867      2.44869         0.002964     -0.001051      0.006433
      5.96117      1.41867      2.44869        -0.002964     -0.001051      0.006433
      5.69748      4.71355      5.41683         0.002964      0.001051      0.006433
 -----------------------------------------------------------------------------------
    total drift:                                0.000000     -0.000000      0.007449


--------------------------------------------------------------------------------------------------------



  FREE ENERGIE OF THE ION-ELECTRON SYSTEM (eV)
  ---------------------------------------------------
  free  energy   TOTEN  =       -76.87347264 eV

  energy  without entropy=      -76.87347264  energy(sigma->0) =      -76.87347264
 
 d Force = 0.8440860E-05[-0.340E-04, 0.508E-04]  d Energy =-0.3537399E-05 0.120E-04
 d Force =-0.8757978E-01[-0.879E-01,-0.873E-01]  d Ewald  =-0.5576308E+00 0.470E+00


--------------------------------------------------------------------------------------------------------


    POTLOK:  cpu time    0.0038: real time    0.0038


--------------------------------------------------------------------------------------------------------




--------------------------------------------------------------------------------------------------------


  
 reached required accuracy - stopping structural energy minimisation
     LOOP+:  cpu time    0.7073: real time    0.7139
    4ORBIT:  cpu time    0.0000: real time    0.0000
 BZINTS: Fermi energy:  2.797254; 76.000000 electrons
         Band energy:-655.530446;  BLOECHL correction:  0.000000

 total amount of memory used by VASP MPI-rank0    33602. kBytes
=======================================================================

   base      :      30000. kBytes
   nonlr-proj:       1231. kBytes
   fftplans  :        656. kBytes
   grid      :       1147. kBytes
   one-center:          3. kBytes
   wavefun   :        565. kBytes
 
  
  
 General timing and accounting informations for this job:
 ========================================================
  
                  Total CPU time used (sec):       23.606
                            User time (sec):       23.183
                          System time (sec):        0.423
                         Elapsed time (sec):       24.970
  
                   Maximum memory used (kb):      151484.
                   Average memory used (kb):           0.
  
                          Minor page faults:        37013
                          Major page faults:           84
                 Voluntary context switches:         2520
