<?xml version="1.0" encoding="ISO-8859-1"?>
<modeling>
 <generator>
  <i name="program" type="string">vasp </i>
  <i name="version" type="string">5.4.4.18Apr17-6-g9f103f2a35  </i>
  <i name="subversion" type="string">(build Feb 28 2020 14:15:47) complex            parallel </i>
  <i name="platform" type="string">LinuxIFC </i>
  <i name="date" type="string">2022 08 07 </i>
  <i name="time" type="string">07:37:16 </i>
 </generator>
 <incar>
  <i type="int" name="ISTART">     0</i>
  <i type="string" name="PREC">accurate</i>
  <i type="string" name="ALGO"> FAST</i>
  <i type="int" name="ISPIN">     1</i>
  <i type="int" name="ICHARG">     2</i>
  <i type="int" name="INIWAV">     1</i>
  <i type="int" name="NELM">   100</i>
  <i type="int" name="IBRION">     2</i>
  <i name="EDIFF">      0.00002000</i>
  <i name="EDIFFG">      0.00020000</i>
  <i type="int" name="NSW">   100</i>
  <i type="int" name="ISIF">     3</i>
  <i name="ENCUT">    420.00000000</i>
  <i type="string" name="LREAL"> AUTO</i>
  <i type="int" name="ISMEAR">    -5</i>
  <i type="logical" name="LWAVE"> F  </i>
  <i type="logical" name="LCHARG"> F  </i>
  <v type="int" name="KPOINT_BSE">    -1     0     0     0</v>
  <i type="int" name="NELM">   100</i>
 </incar>
 <structure name="primitive_cell" >
  <crystal>
   <varray name="basis" >
    <v>       7.81689568       0.00000000       0.00000000 </v>
    <v>       0.00000000       6.12225542       0.00000000 </v>
    <v>       0.00000000       0.00000000       5.93655137 </v>
   </varray>
   <i name="volume">    284.10572876 </i>
   <varray name="rec_basis" >
    <v>       0.12792802       0.00000000       0.00000000 </v>
    <v>       0.00000000       0.16333850       0.00000000 </v>
    <v>       0.00000000       0.00000000       0.16844797 </v>
   </varray>
  </crystal>
  <varray name="positions" >
   <v>       0.00000000      -0.22789649       0.43962069 </v>
   <v>       0.00000000       0.06680310      -0.40409600 </v>
   <v>       0.00000000      -0.18554067       0.10055016 </v>
   <v>       0.20785343      -0.39708378      -0.44651717 </v>
   <v>      -0.20785343      -0.39708378      -0.44651717 </v>
   <v>       0.00000000       0.42684406      -0.14512854 </v>
   <v>       0.23415082       0.23464674       0.41461516 </v>
   <v>      -0.23415082       0.23464674       0.41461516 </v>
   <v>       0.26584918      -0.23464674      -0.08538484 </v>
   <v>      -0.26584918      -0.23464674      -0.08538484 </v>
   <v>       0.29214657       0.39708378       0.05348283 </v>
   <v>      -0.29214657       0.39708378       0.05348283 </v>
   <v>       0.50000000      -0.42684406       0.35487146 </v>
   <v>       0.50000000      -0.06680310       0.09590400 </v>
   <v>       0.50000000       0.18554067      -0.39944984 </v>
   <v>       0.50000000       0.22789649      -0.06037931 </v>
  </varray>
 </structure>
 <varray name="primitive_index" >
  <v type="int" >        1 </v>
  <v type="int" >        9 </v>
  <v type="int" >        7 </v>
  <v type="int" >        3 </v>
  <v type="int" >        6 </v>
  <v type="int" >       11 </v>
  <v type="int" >       14 </v>
  <v type="int" >       15 </v>
  <v type="int" >       13 </v>
  <v type="int" >       16 </v>
  <v type="int" >        4 </v>
  <v type="int" >        5 </v>
  <v type="int" >       12 </v>
  <v type="int" >       10 </v>
  <v type="int" >        8 </v>
  <v type="int" >        2 </v>
 </varray>
 <kpoints>
  <generation param="Monkhorst-Pack">
   <v type="int" name="divisions">       4        4        4 </v>
   <v name="usershift">      0.00000000       0.00000000       0.00000000 </v>
   <v name="genvec1">      0.25000000       0.00000000       0.00000000 </v>
   <v name="genvec2">      0.00000000       0.25000000       0.00000000 </v>
   <v name="genvec3">      0.00000000       0.00000000       0.25000000 </v>
   <v name="shift">      0.50000000       0.50000000       0.50000000 </v>
  </generation>
  <varray name="kpointlist" >
   <v>       0.12500000       0.12500000       0.12500000 </v>
   <v>       0.37500000       0.12500000       0.12500000 </v>
   <v>       0.12500000       0.37500000       0.12500000 </v>
   <v>       0.37500000       0.37500000       0.12500000 </v>
   <v>       0.12500000       0.12500000       0.37500000 </v>
   <v>       0.37500000       0.12500000       0.37500000 </v>
   <v>       0.12500000       0.37500000       0.37500000 </v>
   <v>       0.37500000       0.37500000       0.37500000 </v>
  </varray>
  <varray name="weights" >
   <v>       0.12500000 </v>
   <v>       0.12500000 </v>
   <v>       0.12500000 </v>
   <v>       0.12500000 </v>
   <v>       0.12500000 </v>
   <v>       0.12500000 </v>
   <v>       0.12500000 </v>
   <v>       0.12500000 </v>
  </varray>
  <varray name="tetrahedronlist"  type="int" >
   <v type="int" >        2        1        2        4        5 </v>
   <v type="int" >        2        1        3        4        5 </v>
   <v type="int" >        2        3        4        5        7 </v>
   <v type="int" >        2        2        4        5        6 </v>
   <v type="int" >        2        4        5        6        8 </v>
   <v type="int" >        2        4        5        7        8 </v>
   <v type="int" >        2        2        2        4        6 </v>
   <v type="int" >        2        2        4        4        6 </v>
   <v type="int" >        2        4        4        6        8 </v>
   <v type="int" >        2        2        4        6        6 </v>
   <v type="int" >        2        4        6        6        8 </v>
   <v type="int" >        2        4        6        8        8 </v>
   <v type="int" >        2        1        2        3        6 </v>
   <v type="int" >        2        2        3        4        6 </v>
   <v type="int" >        2        3        4        6        8 </v>
   <v type="int" >        2        1        3        5        6 </v>
   <v type="int" >        2        3        5        6        7 </v>
   <v type="int" >        2        3        6        7        8 </v>
   <v type="int" >        2        1        1        3        5 </v>
   <v type="int" >        2        1        3        3        5 </v>
   <v type="int" >        2        3        3        5        7 </v>
   <v type="int" >        2        1        3        5        5 </v>
   <v type="int" >        2        3        5        5        7 </v>
   <v type="int" >        2        3        5        7        7 </v>
   <v type="int" >        2        3        4        4        7 </v>
   <v type="int" >        2        3        3        4        7 </v>
   <v type="int" >        2        3        4        7        7 </v>
   <v type="int" >        2        4        4        7        8 </v>
   <v type="int" >        2        4        7        8        8 </v>
   <v type="int" >        2        4        7        7        8 </v>
   <v type="int" >        4        4        4        4        8 </v>
   <v type="int" >        4        4        4        8        8 </v>
   <v type="int" >        4        4        8        8        8 </v>
   <v type="int" >        2        3        3        4        8 </v>
   <v type="int" >        2        3        4        4        8 </v>
   <v type="int" >        2        3        4        8        8 </v>
   <v type="int" >        2        3        3        7        8 </v>
   <v type="int" >        2        3        7        7        8 </v>
   <v type="int" >        2        3        7        8        8 </v>
   <v type="int" >        4        3        3        3        7 </v>
   <v type="int" >        4        3        3        7        7 </v>
   <v type="int" >        4        3        7        7        7 </v>
   <v type="int" >        2        2        3        4        7 </v>
   <v type="int" >        2        1        2        3        7 </v>
   <v type="int" >        2        1        2        5        7 </v>
   <v type="int" >        2        2        4        7        8 </v>
   <v type="int" >        2        2        6        7        8 </v>
   <v type="int" >        2        2        5        6        7 </v>
   <v type="int" >        2        2        4        4        8 </v>
   <v type="int" >        2        2        2        4        8 </v>
   <v type="int" >        2        2        2        6        8 </v>
   <v type="int" >        2        2        4        8        8 </v>
   <v type="int" >        2        2        6        8        8 </v>
   <v type="int" >        2        2        6        6        8 </v>
   <v type="int" >        2        1        3        4        8 </v>
   <v type="int" >        2        1        2        4        8 </v>
   <v type="int" >        2        1        2        6        8 </v>
   <v type="int" >        2        1        3        7        8 </v>
   <v type="int" >        2        1        5        7        8 </v>
   <v type="int" >        2        1        5        6        8 </v>
   <v type="int" >        2        1        3        3        7 </v>
   <v type="int" >        2        1        1        3        7 </v>
   <v type="int" >        2        1        1        5        7 </v>
   <v type="int" >        2        1        3        7        7 </v>
   <v type="int" >        2        1        5        7        7 </v>
   <v type="int" >        2        1        5        5        7 </v>
   <v type="int" >        2        1        2        2        5 </v>
   <v type="int" >        2        1        1        2        5 </v>
   <v type="int" >        2        1        2        5        5 </v>
   <v type="int" >        2        2        2        5        6 </v>
   <v type="int" >        2        2        5        6        6 </v>
   <v type="int" >        2        2        5        5        6 </v>
   <v type="int" >        4        2        2        2        6 </v>
   <v type="int" >        4        2        2        6        6 </v>
   <v type="int" >        4        2        6        6        6 </v>
   <v type="int" >        2        1        1        2        6 </v>
   <v type="int" >        2        1        2        2        6 </v>
   <v type="int" >        2        1        2        6        6 </v>
   <v type="int" >        2        1        1        5        6 </v>
   <v type="int" >        2        1        5        5        6 </v>
   <v type="int" >        2        1        5        6        6 </v>
   <v type="int" >        4        1        1        1        5 </v>
   <v type="int" >        4        1        1        5        5 </v>
   <v type="int" >        4        1        5        5        5 </v>
   <v type="int" >        2        5        5        6        8 </v>
   <v type="int" >        2        5        5        7        8 </v>
   <v type="int" >        2        5        7        7        8 </v>
   <v type="int" >        2        5        6        6        8 </v>
   <v type="int" >        2        5        6        8        8 </v>
   <v type="int" >        2        5        7        8        8 </v>
   <v type="int" >        4        6        6        6        8 </v>
   <v type="int" >        4        6        6        8        8 </v>
   <v type="int" >        4        6        8        8        8 </v>
   <v type="int" >        2        5        6        6        7 </v>
   <v type="int" >        2        6        6        7        8 </v>
   <v type="int" >        2        6        7        8        8 </v>
   <v type="int" >        2        5        5        6        7 </v>
   <v type="int" >        2        5        6        7        7 </v>
   <v type="int" >        2        6        7        7        8 </v>
   <v type="int" >        4        5        5        5        7 </v>
   <v type="int" >        4        5        5        7        7 </v>
   <v type="int" >        4        5        7        7        7 </v>
   <v type="int" >        4        7        7        8        8 </v>
   <v type="int" >        4        7        7        7        8 </v>
   <v type="int" >        4        7        8        8        8 </v>
   <v type="int" >        6        8        8        8        8 </v>
   <v type="int" >        6        7        7        7        7 </v>
   <v type="int" >        4        5        5        6        6 </v>
   <v type="int" >        4        5        5        5        6 </v>
   <v type="int" >        4        5        6        6        6 </v>
   <v type="int" >        6        6        6        6        6 </v>
   <v type="int" >        6        5        5        5        5 </v>
   <v type="int" >        2        1        1        2        4 </v>
   <v type="int" >        2        1        1        3        4 </v>
   <v type="int" >        2        1        3        3        4 </v>
   <v type="int" >        2        1        2        2        4 </v>
   <v type="int" >        2        1        2        4        4 </v>
   <v type="int" >        2        1        3        4        4 </v>
   <v type="int" >        4        2        2        2        4 </v>
   <v type="int" >        4        2        2        4        4 </v>
   <v type="int" >        4        2        4        4        4 </v>
   <v type="int" >        2        1        2        2        3 </v>
   <v type="int" >        2        2        2        3        4 </v>
   <v type="int" >        2        2        3        4        4 </v>
   <v type="int" >        2        1        1        2        3 </v>
   <v type="int" >        2        1        2        3        3 </v>
   <v type="int" >        2        2        3        3        4 </v>
   <v type="int" >        4        1        1        1        3 </v>
   <v type="int" >        4        1        1        3        3 </v>
   <v type="int" >        4        1        3        3        3 </v>
   <v type="int" >        4        3        3        4        4 </v>
   <v type="int" >        4        3        3        3        4 </v>
   <v type="int" >        4        3        4        4        4 </v>
   <v type="int" >        6        4        4        4        4 </v>
   <v type="int" >        6        3        3        3        3 </v>
   <v type="int" >        4        1        1        2        2 </v>
   <v type="int" >        4        1        1        1        2 </v>
   <v type="int" >        4        1        2        2        2 </v>
   <v type="int" >        6        2        2        2        2 </v>
   <v type="int" >        6        1        1        1        1 </v>
  </varray>
  <i name="volumeweight">      0.00260417 </i>
 </kpoints>
 <parameters>
  <separator name="general" >
   <i type="string" name="SYSTEM">unknown system</i>
   <i type="logical" name="LCOMPAT"> F  </i>
  </separator>
  <separator name="electronic" >
   <i type="string" name="PREC">accura</i>
   <i name="ENMAX">    420.00000000</i>
   <i name="ENAUG">    628.94500000</i>
   <i name="EDIFF">      0.00002000</i>
   <i type="int" name="IALGO">    68</i>
   <i type="int" name="IWAVPR">    11</i>
   <i type="int" name="NBANDS">    48</i>
   <i name="NELECT">     76.00000000</i>
   <i type="int" name="TURBO">     0</i>
   <i type="int" name="IRESTART">     0</i>
   <i type="int" name="NREBOOT">     0</i>
   <i type="int" name="NMIN">     0</i>
   <i name="EREF">      0.00000000</i>
   <separator name="electronic smearing" >
    <i type="int" name="ISMEAR">    -5</i>
    <i name="SIGMA">      0.20000000</i>
    <i name="KSPACING">      0.50000000</i>
    <i type="logical" name="KGAMMA"> T  </i>
   </separator>
   <separator name="electronic projectors" >
    <i type="logical" name="LREAL"> T  </i>
    <v name="ROPT">     -0.00025000     -0.00025000     -0.00025000</v>
    <i type="int" name="LMAXPAW">  -100</i>
    <i type="int" name="LMAXMIX">     2</i>
    <i type="logical" name="NLSPLINE"> F  </i>
   </separator>
   <separator name="electronic startup" >
    <i type="int" name="ISTART">     0</i>
    <i type="int" name="ICHARG">     2</i>
    <i type="int" name="INIWAV">     1</i>
   </separator>
   <separator name="electronic spin" >
    <i type="int" name="ISPIN">     1</i>
    <i type="logical" name="LNONCOLLINEAR"> F  </i>
    <v name="MAGMOM">      1.00000000      1.00000000      1.00000000      1.00000000      1.00000000      1.00000000      1.00000000      1.00000000      1.00000000      1.00000000      1.00000000      1.00000000      1.00000000      1.00000000      1.00000000      1.00000000</v>
    <i name="NUPDOWN">     -1.00000000</i>
    <i type="logical" name="LSORBIT"> F  </i>
    <v name="SAXIS">      0.00000000      0.00000000      1.00000000</v>
    <i type="logical" name="LSPIRAL"> F  </i>
    <v name="QSPIRAL">      0.00000000      0.00000000      0.00000000</v>
    <i type="logical" name="LZEROZ"> F  </i>
   </separator>
   <separator name="electronic exchange-correlation" >
    <i type="logical" name="LASPH"> F  </i>
    <i type="logical" name="LMETAGGA"> F  </i>
   </separator>
   <separator name="electronic convergence" >
    <i type="int" name="NELM">   100</i>
    <i type="int" name="NELMDL">    -5</i>
    <i type="int" name="NELMIN">     2</i>
    <i name="ENINI">    420.00000000</i>
    <separator name="electronic convergence detail" >
     <i type="logical" name="LDIAG"> T  </i>
     <i type="logical" name="LSUBROT"> F  </i>
     <i name="WEIMIN">      0.00100000</i>
     <i name="EBREAK">      0.00000010</i>
     <i name="DEPER">      0.30000000</i>
     <i type="int" name="NRMM">     4</i>
     <i name="TIME">      0.40000000</i>
    </separator>
   </separator>
   <separator name="electronic mixer" >
    <i name="AMIX">      0.40000000</i>
    <i name="BMIX">      1.00000000</i>
    <i name="AMIN">      0.10000000</i>
    <i name="AMIX_MAG">      1.60000000</i>
    <i name="BMIX_MAG">      1.00000000</i>
    <separator name="electronic mixer details" >
     <i type="int" name="IMIX">     4</i>
     <i type="logical" name="MIXFIRST"> F  </i>
     <i type="int" name="MAXMIX">   -45</i>
     <i name="WC">    100.00000000</i>
     <i type="int" name="INIMIX">     1</i>
     <i type="int" name="MIXPRE">     1</i>
     <i type="int" name="MREMOVE">     5</i>
    </separator>
   </separator>
   <separator name="electronic dipolcorrection" >
    <i type="logical" name="LDIPOL"> F  </i>
    <i type="logical" name="LMONO"> F  </i>
    <i type="int" name="IDIPOL">     0</i>
    <i name="EPSILON">      1.00000000</i>
    <v name="DIPOL">   -100.00000000   -100.00000000   -100.00000000</v>
    <i name="EFIELD">      0.00000000</i>
   </separator>
  </separator>
  <separator name="grids" >
   <i type="int" name="NGX">    54</i>
   <i type="int" name="NGY">    42</i>
   <i type="int" name="NGZ">    40</i>
   <i type="int" name="NGXF">   108</i>
   <i type="int" name="NGYF">    84</i>
   <i type="int" name="NGZF">    80</i>
   <i type="logical" name="ADDGRID"> F  </i>
  </separator>
  <separator name="ionic" >
   <i type="int" name="NSW">   100</i>
   <i type="int" name="IBRION">     2</i>
   <i type="int" name="MDALGO">     0</i>
   <i type="int" name="ISIF">     3</i>
   <i name="PSTRESS">      0.00000000</i>
   <i name="EDIFFG">      0.00020000</i>
   <i type="int" name="NFREE">     1</i>
   <i name="POTIM">      0.50000000</i>
   <i name="SMASS">     -3.00000000</i>
   <i name="SCALEE">      1.00000000</i>
  </separator>
  <separator name="ionic md" >
   <i name="TEBEG">      0.00010000</i>
   <i name="TEEND">      0.00010000</i>
   <i type="int" name="NBLOCK">     1</i>
   <i type="int" name="KBLOCK">   100</i>
   <i type="int" name="NPACO">   256</i>
   <i name="APACO">     16.00000000</i>
  </separator>
  <separator name="symmetry" >
   <i type="int" name="ISYM">     2</i>
   <i name="SYMPREC">      0.00001000</i>
  </separator>
  <separator name="dos" >
   <i type="int" name="LORBIT">     0</i>
   <v name="RWIGS">     -1.00000000     -1.00000000     -1.00000000</v>
   <i type="int" name="NEDOS">   301</i>
   <i name="EMIN">     10.00000000</i>
   <i name="EMAX">    -10.00000000</i>
   <i name="EFERMI">      0.00000000</i>
  </separator>
  <separator name="writing" >
   <i type="int" name="NWRITE">     2</i>
   <i type="logical" name="LWAVE"> F  </i>
   <i type="logical" name="LDOWNSAMPLE"> F  </i>
   <i type="logical" name="LCHARG"> F  </i>
   <i type="logical" name="LPARD"> F  </i>
   <i type="logical" name="LVTOT"> F  </i>
   <i type="logical" name="LVHAR"> F  </i>
   <i type="logical" name="LELF"> F  </i>
   <i type="logical" name="LOPTICS"> F  </i>
   <v name="STM">      0.00000000      0.00000000      0.00000000      0.00000000      0.00000000      0.00000000      0.00000000</v>
  </separator>
  <separator name="performance" >
   <i type="int" name="NPAR">     4</i>
   <i type="int" name="NSIM">     4</i>
   <i type="int" name="NBLK">    -1</i>
   <i type="logical" name="LPLANE"> T  </i>
   <i type="logical" name="LSCALAPACK"> T  </i>
   <i type="logical" name="LSCAAWARE"> F  </i>
   <i type="logical" name="LSCALU"> F  </i>
   <i type="logical" name="LASYNC"> F  </i>
   <i type="logical" name="LORBITALREAL"> F  </i>
  </separator>
  <separator name="miscellaneous" >
   <i type="int" name="IDIOT">     3</i>
   <i type="int" name="ISPECIAL">     0</i>
   <i type="logical" name="LMUSIC"> F  </i>
   <v name="POMASS">     30.97400000     32.06600000      7.01000000</v>
   <v name="DARWINR">      0.00000000      0.00000000      0.00000000</v>
   <v name="DARWINV">      1.00000000      1.00000000      1.00000000</v>
   <i type="logical" name="LCORR"> T  </i>
  </separator>
  <i type="logical" name="GGA_COMPAT"> T  </i>
  <i type="logical" name="LBERRY"> F  </i>
  <i type="int" name="ICORELEVEL">     0</i>
  <i type="logical" name="LDAU"> F  </i>
  <i type="int" name="I_CONSTRAINED_M">     0</i>
  <separator name="electronic exchange-correlation" >
   <i type="string" name="GGA">--</i>
   <i type="int" name="VOSKOWN">     0</i>
   <i type="logical" name="LHFCALC"> F  </i>
   <i type="string" name="PRECFOCK"></i>
   <i type="logical" name="LSYMGRAD"> F  </i>
   <i type="logical" name="LHFONE"> F  </i>
   <i type="logical" name="LRHFCALC"> F  </i>
   <i type="logical" name="LTHOMAS"> F  </i>
   <i type="logical" name="LMODELHF"> F  </i>
   <i name="ENCUT4O">     -1.00000000</i>
   <i type="int" name="EXXOEP">     0</i>
   <i type="int" name="FOURORBIT">     0</i>
   <i name="AEXX">      0.00000000</i>
   <i name="HFALPHA">      0.00000000</i>
   <i name="MCALPHA">      0.00000000</i>
   <i name="ALDAX">      1.00000000</i>
   <i name="AGGAX">      1.00000000</i>
   <i name="ALDAC">      1.00000000</i>
   <i name="AGGAC">      1.00000000</i>
   <i type="int" name="NKREDX">     1</i>
   <i type="int" name="NKREDY">     1</i>
   <i type="int" name="NKREDZ">     1</i>
   <i type="logical" name="SHIFTRED"> F  </i>
   <i type="logical" name="ODDONLY"> F  </i>
   <i type="logical" name="EVENONLY"> F  </i>
   <i type="int" name="LMAXFOCK">     0</i>
   <i type="int" name="NMAXFOCKAE">     0</i>
   <i type="logical" name="LFOCKAEDFT"> F  </i>
   <i name="HFSCREEN">      0.00000000</i>
   <i name="HFSCREENC">      0.00000000</i>
   <i type="int" name="NBANDSGWLOW">     0</i>
  </separator>
  <separator name="vdW DFT" >
   <i type="logical" name="LUSE_VDW"> F  </i>
   <i name="Zab_VDW">     -0.84910000</i>
   <i name="PARAM1">      0.12340000</i>
   <i name="PARAM2">      1.00000000</i>
   <i name="PARAM3">      0.00000000</i>
  </separator>
  <separator name="model GW" >
   <i type="int" name="MODEL_GW">     0</i>
   <i name="MODEL_EPS0">     10.65396483</i>
   <i name="MODEL_ALPHA">      1.00000000</i>
  </separator>
  <separator name="linear response parameters" >
   <i type="logical" name="LEPSILON"> F  </i>
   <i type="logical" name="LRPA"> F  </i>
   <i type="logical" name="LNABLA"> F  </i>
   <i type="logical" name="LVEL"> F  </i>
   <i type="int" name="KINTER">     0</i>
   <i name="CSHIFT">      0.10000000</i>
   <i name="OMEGAMAX">     -1.00000000</i>
   <i name="DEG_THRESHOLD">      0.00200000</i>
   <i name="RTIME">     -0.10000000</i>
   <i name="WPLASMAI">      0.00000000</i>
   <v name="DFIELD">      0.00000000      0.00000000      0.00000000</v>
   <v name="WPLASMA">      0.00000000      0.00000000      0.00000000      0.00000000      0.00000000      0.00000000      0.00000000      0.00000000      0.00000000</v>
  </separator>
  <separator name="orbital magnetization" >
   <i type="logical" name="NUCIND"> F  </i>
   <v name="MAGPOS">      0.00000000      0.00000000      0.00000000</v>
   <i type="logical" name="LNICSALL"> T  </i>
   <i type="logical" name="ORBITALMAG"> F  </i>
   <i type="logical" name="LMAGBLOCH"> F  </i>
   <i type="logical" name="LCHIMAG"> F  </i>
   <i type="logical" name="LGAUGE"> T  </i>
   <i type="int" name="MAGATOM">     0</i>
   <v name="MAGDIPOL">      0.00000000      0.00000000      0.00000000</v>
   <v name="AVECCONST">      0.00000000      0.00000000      0.00000000</v>
  </separator>
  <separator name="response functions" >
   <i type="logical" name="LADDER"> F  </i>
   <i type="logical" name="LRPAFORCE"> F  </i>
   <i type="logical" name="LFXC"> F  </i>
   <i type="logical" name="LHARTREE"> T  </i>
   <i type="int" name="IBSE">     0</i>
   <v type="int" name="KPOINT">    -1     0     0     0</v>
   <i type="logical" name="LTCTE"> F  </i>
   <i type="logical" name="LTETE"> F  </i>
   <i type="logical" name="LTRIPLET"> F  </i>
   <i type="logical" name="LFXCEPS"> F  </i>
   <i type="logical" name="LFXHEG"> F  </i>
   <i type="int" name="NATURALO">     2</i>
   <i type="logical" name="L2ORDER"> F  </i>
   <i type="logical" name="LMP2LT"> F  </i>
   <i type="logical" name="LUSEW"> F  </i>
   <i name="ENCUTGW">     -2.00000000</i>
   <i name="ENCUTGWSOFT">     -2.00000000</i>
   <i name="ENCUTLF">     -1.00000000</i>
   <i type="int" name="LMAXMP2">    -1</i>
   <i name="SCISSOR">      0.00000000</i>
   <i type="int" name="NOMEGA">     0</i>
   <i type="int" name="NOMEGAR">     0</i>
   <i type="int" name="NBANDSGW">    -1</i>
   <i type="int" name="NBANDSO">    -1</i>
   <i type="int" name="NBANDSV">    -1</i>
   <i type="int" name="NELM">   100</i>
   <i type="int" name="NELMHF">     1</i>
   <i type="int" name="DIM">     3</i>
   <i type="int" name="ANTIRES">     0</i>
   <i name="OMEGAMAX">    -30.00000000</i>
   <i name="OMEGAMIN">    -30.00000000</i>
   <i name="OMEGATL">   -200.00000000</i>
   <i type="int" name="OMEGAGRID">   140</i>
   <i name="CSHIFT">     -0.10000000</i>
   <i type="logical" name="SELFENERGY"> F  </i>
   <i type="logical" name="LSPECTRAL"> F  </i>
   <i type="logical" name="LSPECTRALGW"> F  </i>
   <i type="logical" name="LSINGLES"> F  </i>
   <i type="logical" name="LFERMIGW"> F  </i>
   <i type="logical" name="ODDONLYGW"> F  </i>
   <i type="logical" name="EVENONLYGW"> F  </i>
   <i type="int" name="NKREDLFX">     1</i>
   <i type="int" name="NKREDLFY">     1</i>
   <i type="int" name="NKREDLFZ">     1</i>
   <i type="int" name="MAXMEM">  2800</i>
   <i type="int" name="TELESCOPE">     0</i>
   <i type="int" name="TAUPAR">     1</i>
   <i type="int" name="OMEGAPAR">    -1</i>
   <i name="LAMBDA">      1.00000000</i>
  </separator>
  <separator name="External order field" >
   <i name="OFIELD_KAPPA">      0.00000000</i>
   <v name="OFIELD_K">      0.00000000      0.00000000      0.00000000</v>
   <i name="OFIELD_Q6_NEAR">      0.00000000</i>
   <i name="OFIELD_Q6_FAR">      0.00000000</i>
   <i name="OFIELD_A">      0.00000000</i>
  </separator>
 </parameters>
 <atominfo>
  <atoms>      16 </atoms>
  <types>       3 </types>
  <array name="atoms" >
   <dimension dim="1">ion</dimension>
   <field type="string">element</field>
   <field type="int">atomtype</field>
   <set>
    <rc><c>P </c><c>   1</c></rc>
    <rc><c>P </c><c>   1</c></rc>
    <rc><c>S </c><c>   2</c></rc>
    <rc><c>S </c><c>   2</c></rc>
    <rc><c>S </c><c>   2</c></rc>
    <rc><c>S </c><c>   2</c></rc>
    <rc><c>S </c><c>   2</c></rc>
    <rc><c>S </c><c>   2</c></rc>
    <rc><c>S </c><c>   2</c></rc>
    <rc><c>S </c><c>   2</c></rc>
    <rc><c>Li</c><c>   3</c></rc>
    <rc><c>Li</c><c>   3</c></rc>
    <rc><c>Li</c><c>   3</c></rc>
    <rc><c>Li</c><c>   3</c></rc>
    <rc><c>Li</c><c>   3</c></rc>
    <rc><c>Li</c><c>   3</c></rc>
   </set>
  </array>
  <array name="atomtypes" >
   <dimension dim="1">type</dimension>
   <field type="int">atomspertype</field>
   <field type="string">element</field>
   <field>mass</field>
   <field>valence</field>
   <field type="string">pseudopotential</field>
   <set>
    <rc><c>   2</c><c>P </c><c>     30.97400000</c><c>      5.00000000</c><c>  PAW P 26Mar2009                       </c></rc>
    <rc><c>   8</c><c>S </c><c>     32.06600000</c><c>      6.00000000</c><c>  PAW S 27Mar2009                       </c></rc>
    <rc><c>   6</c><c>Li</c><c>      7.01000000</c><c>      3.00000000</c><c>  PAW Li_sv 10Sep2004                   </c></rc>
   </set>
  </array>
 </atominfo>
 <structure name="initialpos" >
  <crystal>
   <varray name="basis" >
    <v>       7.81689568       0.00000000       0.00000000 </v>
    <v>       0.00000000       6.12225542       0.00000000 </v>
    <v>       0.00000000       0.00000000       5.93655137 </v>
   </varray>
   <i name="volume">    284.10572876 </i>
   <varray name="rec_basis" >
    <v>       0.12792802       0.00000000       0.00000000 </v>
    <v>       0.00000000       0.16333850       0.00000000 </v>
    <v>       0.00000000       0.00000000       0.16844797 </v>
   </varray>
  </crystal>
  <varray name="positions" >
   <v>       0.00000000       0.77210351       0.43962069 </v>
   <v>       0.50000000       0.22789649       0.93962069 </v>
   <v>       0.20785343       0.60291622       0.55348283 </v>
   <v>       0.29214657       0.39708378       0.05348283 </v>
   <v>       0.70785343       0.39708378       0.05348283 </v>
   <v>       0.79214657       0.60291622       0.55348283 </v>
   <v>       0.00000000       0.81445933       0.10055016 </v>
   <v>       0.50000000       0.18554067       0.60055016 </v>
   <v>       0.00000000       0.06680310       0.59590400 </v>
   <v>       0.50000000       0.93319690       0.09590400 </v>
   <v>       0.00000000       0.42684406       0.85487146 </v>
   <v>       0.50000000       0.57315594       0.35487146 </v>
   <v>       0.26584918       0.76535326       0.91461516 </v>
   <v>       0.23415082       0.23464674       0.41461516 </v>
   <v>       0.76584918       0.23464674       0.41461516 </v>
   <v>       0.73415082       0.76535326       0.91461516 </v>
  </varray>
 </structure>
 <calculation>
  <scstep>
   <time name="dav">    0.20    0.21</time>
   <time name="total">    0.22    0.23</time>
   <energy>
    <i name="alphaZ">     69.45638970 </i>
    <i name="ewald">  -2736.77166153 </i>
    <i name="hartreedc">   -627.69383643 </i>
    <i name="XCdc">    182.08853936 </i>
    <i name="pawpsdc">   2494.22442938 </i>
    <i name="pawaedc">  -2541.12215007 </i>
    <i name="eentropy">      0.00000000 </i>
    <i name="bandstr">   -114.56130355 </i>
    <i name="atom">   3769.08782378 </i>
    <i name="e_fr_energy">    494.70823065 </i>
    <i name="e_wo_entrp">    494.70823065 </i>
    <i name="e_0_energy">    494.70823065 </i>
   </energy>
  </scstep>
  <scstep>
   <time name="dav">    0.20    0.20</time>
   <time name="total">    0.20    0.20</time>
   <energy>
    <i name="e_fr_energy">    -12.42607168 </i>
    <i name="e_wo_entrp">    -12.42607168 </i>
    <i name="e_0_energy">    -12.42607168 </i>
   </energy>
  </scstep>
  <scstep>
   <time name="dav">    0.22    0.22</time>
   <time name="total">    0.22    0.22</time>
   <energy>
    <i name="e_fr_energy">    -72.17992570 </i>
    <i name="e_wo_entrp">    -72.17992570 </i>
    <i name="e_0_energy">    -72.17992570 </i>
   </energy>
  </scstep>
  <scstep>
   <time name="dav">    0.28    0.28</time>
   <time name="total">    0.28    0.28</time>
   <energy>
    <i name="e_fr_energy">    -78.65320057 </i>
    <i name="e_wo_entrp">    -78.65320057 </i>
    <i name="e_0_energy">    -78.65320057 </i>
   </energy>
  </scstep>
  <scstep>
   <time name="dav">    0.24    0.24</time>
   <time name="total">    0.26    0.26</time>
   <energy>
    <i name="e_fr_energy">    -79.45412246 </i>
    <i name="e_wo_entrp">    -79.45412246 </i>
    <i name="e_0_energy">    -79.45412246 </i>
   </energy>
  </scstep>
  <scstep>
   <time name="diag">    0.05    0.05</time>
   <time name="diis">    0.09    0.09</time>
   <time name="orth">    0.01    0.01</time>
   <time name="total">    0.17    0.17</time>
   <energy>
    <i name="e_fr_energy">    -77.35055291 </i>
    <i name="e_wo_entrp">    -77.35055291 </i>
    <i name="e_0_energy">    -77.35055291 </i>
   </energy>
  </scstep>
  <scstep>
   <time name="diag">    0.05    0.05</time>
   <time name="diis">    0.09    0.09</time>
   <time name="orth">    0.01    0.01</time>
   <time name="total">    0.17    0.17</time>
   <energy>
    <i name="e_fr_energy">    -76.92647525 </i>
    <i name="e_wo_entrp">    -76.92647525 </i>
    <i name="e_0_energy">    -76.92647525 </i>
   </energy>
  </scstep>
  <scstep>
   <time name="diag">    0.05    0.05</time>
   <time name="diis">    0.10    0.10</time>
   <time name="orth">    0.01    0.01</time>
   <time name="total">    0.19    0.19</time>
   <energy>
    <i name="e_fr_energy">    -76.85122824 </i>
    <i name="e_wo_entrp">    -76.85122824 </i>
    <i name="e_0_energy">    -76.85122824 </i>
   </energy>
  </scstep>
  <scstep>
   <time name="diag">    0.05    0.05</time>
   <time name="diis">    0.10    0.10</time>
   <time name="orth">    0.01    0.01</time>
   <time name="total">    0.19    0.19</time>
   <energy>
    <i name="e_fr_energy">    -76.84482731 </i>
    <i name="e_wo_entrp">    -76.84482731 </i>
    <i name="e_0_energy">    -76.84482731 </i>
   </energy>
  </scstep>
  <scstep>
   <time name="diag">    0.05    0.05</time>
   <time name="diis">    0.13    0.13</time>
   <time name="orth">    0.01    0.01</time>
   <time name="total">    0.21    0.21</time>
   <energy>
    <i name="e_fr_energy">    -76.84511237 </i>
    <i name="e_wo_entrp">    -76.84511237 </i>
    <i name="e_0_energy">    -76.84511237 </i>
   </energy>
  </scstep>
  <scstep>
   <time name="diag">    0.06    0.06</time>
   <time name="diis">    0.12    0.12</time>
   <time name="orth">    0.01    0.01</time>
   <time name="total">    0.21    0.21</time>
   <energy>
    <i name="e_fr_energy">    -76.84545444 </i>
    <i name="e_wo_entrp">    -76.84545444 </i>
    <i name="e_0_energy">    -76.84545444 </i>
   </energy>
  </scstep>
  <scstep>
   <time name="diag">    0.05    0.05</time>
   <time name="diis">    0.12    0.12</time>
   <time name="orth">    0.01    0.01</time>
   <time name="total">    0.20    0.20</time>
   <energy>
    <i name="e_fr_energy">    -76.84558666 </i>
    <i name="e_wo_entrp">    -76.84558666 </i>
    <i name="e_0_energy">    -76.84558666 </i>
   </energy>
  </scstep>
  <scstep>
   <time name="diag">    0.05    0.05</time>
   <time name="diis">    0.08    0.08</time>
   <time name="orth">    0.01    0.01</time>
   <time name="total">    0.17    0.17</time>
   <energy>
    <i name="e_fr_energy">    -76.84567259 </i>
    <i name="e_wo_entrp">    -76.84567259 </i>
    <i name="e_0_energy">    -76.84567259 </i>
   </energy>
  </scstep>
  <scstep>
   <time name="diag">    0.05    0.05</time>
   <time name="diis">    0.09    0.09</time>
   <time name="orth">    0.01    0.01</time>
   <time name="total">    0.17    0.17</time>
   <energy>
    <i name="e_fr_energy">    -76.84571153 </i>
    <i name="e_wo_entrp">    -76.84571153 </i>
    <i name="e_0_energy">    -76.84571153 </i>
   </energy>
  </scstep>
  <scstep>
   <time name="diag">    0.05    0.05</time>
   <time name="diis">    0.08    0.08</time>
   <time name="orth">    0.01    0.01</time>
   <time name="total">    0.17    0.17</time>
   <energy>
    <i name="e_fr_energy">    -76.84573628 </i>
    <i name="e_wo_entrp">    -76.84573628 </i>
    <i name="e_0_energy">    -76.84573628 </i>
   </energy>
  </scstep>
  <scstep>
   <time name="diag">    0.05    0.05</time>
   <time name="diis">    0.07    0.07</time>
   <time name="orth">    0.01    0.01</time>
   <time name="total">    0.14    0.14</time>
   <energy>
    <i name="alphaZ">     69.45638970 </i>
    <i name="ewald">  -2736.77166153 </i>
    <i name="hartreedc">   -656.02611983 </i>
    <i name="XCdc">    185.30676151 </i>
    <i name="pawpsdc">   7419.82938693 </i>
    <i name="pawaedc">  -7470.29177276 </i>
    <i name="eentropy">      0.00000000 </i>
    <i name="bandstr">   -657.43655686 </i>
    <i name="atom">   3769.08782378 </i>
    <i name="e_fr_energy">    -76.84574905 </i>
    <i name="e_wo_entrp">    -76.84574905 </i>
    <i name="e_0_energy">    -76.84574905 </i>
   </energy>
  </scstep>
  <structure>
   <crystal>
    <varray name="basis" >
     <v>       7.81689568       0.00000000       0.00000000 </v>
     <v>       0.00000000       6.12225542       0.00000000 </v>
     <v>       0.00000000       0.00000000       5.93655137 </v>
    </varray>
    <i name="volume">    284.10572876 </i>
    <varray name="rec_basis" >
     <v>       0.12792802       0.00000000       0.00000000 </v>
     <v>       0.00000000       0.16333850       0.00000000 </v>
     <v>       0.00000000       0.00000000       0.16844797 </v>
    </varray>
   </crystal>
   <varray name="positions" >
    <v>       0.00000000       0.77210351       0.43962069 </v>
    <v>       0.50000000       0.22789649       0.93962069 </v>
    <v>       0.20785343       0.60291622       0.55348283 </v>
    <v>       0.29214657       0.39708378       0.05348283 </v>
    <v>       0.70785343       0.39708378       0.05348283 </v>
    <v>       0.79214657       0.60291622       0.55348283 </v>
    <v>       0.00000000       0.81445933       0.10055016 </v>
    <v>       0.50000000       0.18554067       0.60055016 </v>
    <v>       0.00000000       0.06680310       0.59590400 </v>
    <v>       0.50000000       0.93319690       0.09590400 </v>
    <v>       0.00000000       0.42684406       0.85487146 </v>
    <v>       0.50000000       0.57315594       0.35487146 </v>
    <v>       0.26584918       0.76535326       0.91461516 </v>
    <v>       0.23415082       0.23464674       0.41461516 </v>
    <v>       0.76584918       0.23464674       0.41461516 </v>
    <v>       0.73415082       0.76535326       0.91461516 </v>
   </varray>
  </structure>
  <varray name="forces" >
   <v>       0.00000000      -0.04002938      -0.02163913 </v>
   <v>       0.00000000       0.04002938      -0.02163913 </v>
   <v>      -0.00502635       0.10782299       0.18216428 </v>
   <v>       0.00502635      -0.10782299       0.18216428 </v>
   <v>      -0.00502635      -0.10782299       0.18216428 </v>
   <v>       0.00502635       0.10782299       0.18216428 </v>
   <v>       0.00000000      -0.01616609      -0.08881631 </v>
   <v>       0.00000000       0.01616609      -0.08881631 </v>
   <v>       0.00000000       0.02315163      -0.09615570 </v>
   <v>       0.00000000      -0.02315163      -0.09615570 </v>
   <v>       0.00000000       0.04155628      -0.04361967 </v>
   <v>       0.00000000      -0.04155628      -0.04361967 </v>
   <v>       0.04654155       0.07308384      -0.05704887 </v>
   <v>      -0.04654155      -0.07308384      -0.05704887 </v>
   <v>       0.04654155      -0.07308384      -0.05704887 </v>
   <v>      -0.04654155       0.07308384      -0.05704887 </v>
  </varray>
  <varray name="stress" >
   <v>      -5.36274615       0.00000000       0.00000000 </v>
   <v>       0.00000000      -0.28067682       0.00000000 </v>
   <v>       0.00000000       0.00000000      -0.19705919 </v>
  </varray>
  <energy>
   <i name="e_fr_energy">    -76.84574905 </i>
   <i name="e_wo_entrp">    -76.84574905 </i>
   <i name="e_0_energy">      0.00000000 </i>
  </energy>
  <time name="totalsc">    3.34    3.36</time>
 </calculation>
 <calculation>
  <scstep>
   <time name="dav">    0.20    0.20</time>
   <time name="total">    0.22    0.22</time>
   <energy>
    <i name="alphaZ">     69.67390781 </i>
    <i name="ewald">  -2740.18010225 </i>
    <i name="hartreedc">   -656.30045863 </i>
    <i name="XCdc">    185.51263942 </i>
    <i name="pawpsdc">   7419.84154809 </i>
    <i name="pawaedc">  -7470.30354524 </i>
    <i name="eentropy">      0.00000000 </i>
    <i name="bandstr">   -654.18902304 </i>
    <i name="atom">   3769.08782378 </i>
    <i name="e_fr_energy">    -76.85721007 </i>
    <i name="e_wo_entrp">    -76.85721007 </i>
    <i name="e_0_energy">    -76.85721007 </i>
   </energy>
  </scstep>
  <scstep>
   <time name="diag">    0.05    0.05</time>
   <time name="diis">    0.10    0.10</time>
   <time name="orth">    0.01    0.01</time>
   <time name="total">    0.18    0.18</time>
   <energy>
    <i name="e_fr_energy">    -76.85940280 </i>
    <i name="e_wo_entrp">    -76.85940280 </i>
    <i name="e_0_energy">    -76.85940280 </i>
   </energy>
  </scstep>
  <scstep>
   <time name="diag">    0.05    0.05</time>
   <time name="diis">    0.13    0.13</time>
   <time name="orth">    0.01    0.01</time>
   <time name="total">    0.21    0.21</time>
   <energy>
    <i name="e_fr_energy">    -76.85820685 </i>
    <i name="e_wo_entrp">    -76.85820685 </i>
    <i name="e_0_energy">    -76.85820685 </i>
   </energy>
  </scstep>
  <scstep>
   <time name="diag">    0.05    0.05</time>
   <time name="diis">    0.11    0.11</time>
   <time name="orth">    0.01    0.01</time>
   <time name="total">    0.19    0.19</time>
   <energy>
    <i name="e_fr_energy">    -76.85788250 </i>
    <i name="e_wo_entrp">    -76.85788250 </i>
    <i name="e_0_energy">    -76.85788250 </i>
   </energy>
  </scstep>
  <scstep>
   <time name="diag">    0.05    0.05</time>
   <time name="diis">    0.12    0.12</time>
   <time name="orth">    0.01    0.01</time>
   <time name="total">    0.20    0.20</time>
   <energy>
    <i name="e_fr_energy">    -76.85790864 </i>
    <i name="e_wo_entrp">    -76.85790864 </i>
    <i name="e_0_energy">    -76.85790864 </i>
   </energy>
  </scstep>
  <scstep>
   <time name="diag">    0.05    0.05</time>
   <time name="diis">    0.11    0.11</time>
   <time name="orth">    0.01    0.01</time>
   <time name="total">    0.19    0.19</time>
   <energy>
    <i name="e_fr_energy">    -76.85792409 </i>
    <i name="e_wo_entrp">    -76.85792409 </i>
    <i name="e_0_energy">    -76.85792409 </i>
   </energy>
  </scstep>
  <scstep>
   <time name="diag">    0.05    0.05</time>
   <time name="diis">    0.07    0.07</time>
   <time name="orth">    0.01    0.01</time>
   <time name="total">    0.13    0.13</time>
   <energy>
    <i name="alphaZ">     69.67390781 </i>
    <i name="ewald">  -2740.18010225 </i>
    <i name="hartreedc">   -654.51628275 </i>
    <i name="XCdc">    185.38286741 </i>
    <i name="pawpsdc">   7444.11821732 </i>
    <i name="pawaedc">  -7494.55121201 </i>
    <i name="eentropy">      0.00000000 </i>
    <i name="bandstr">   -655.87313670 </i>
    <i name="atom">   3769.08782378 </i>
    <i name="e_fr_energy">    -76.85791739 </i>
    <i name="e_wo_entrp">    -76.85791739 </i>
    <i name="e_0_energy">    -76.85791739 </i>
   </energy>
  </scstep>
  <structure>
   <crystal>
    <varray name="basis" >
     <v>       7.79448257       0.00000000       0.00000000 </v>
     <v>       0.00000000       6.12133667       0.00000000 </v>
     <v>       0.00000000       0.00000000       5.93592589 </v>
    </varray>
    <i name="volume">    283.21876628 </i>
    <varray name="rec_basis" >
     <v>       0.12829588       0.00000000       0.00000000 </v>
     <v>       0.00000000       0.16336301       0.00000000 </v>
     <v>       0.00000000       0.00000000       0.16846572 </v>
    </varray>
   </crystal>
   <varray name="positions" >
    <v>       0.00000000       0.77178809       0.43944484 </v>
    <v>       0.50000000       0.22821191       0.93944484 </v>
    <v>       0.20782241       0.60376586       0.55496316 </v>
    <v>       0.29217759       0.39623414       0.05496316 </v>
    <v>       0.70782241       0.39623414       0.05496316 </v>
    <v>       0.79217759       0.60376586       0.55496316 </v>
    <v>       0.00000000       0.81433195       0.09982841 </v>
    <v>       0.50000000       0.18566805       0.59982841 </v>
    <v>       0.00000000       0.06698553       0.59512261 </v>
    <v>       0.50000000       0.93301447       0.09512261 </v>
    <v>       0.00000000       0.42717152       0.85451700 </v>
    <v>       0.50000000       0.57282848       0.35451700 </v>
    <v>       0.26613642       0.76592915       0.91415156 </v>
    <v>       0.23386358       0.23407085       0.41415156 </v>
    <v>       0.76613642       0.23407085       0.41415156 </v>
    <v>       0.73386358       0.76592915       0.91415156 </v>
   </varray>
  </structure>
  <varray name="forces" >
   <v>       0.00000000       0.06066788      -0.06206771 </v>
   <v>       0.00000000      -0.06066788      -0.06206771 </v>
   <v>       0.06986049       0.03519391       0.14292867 </v>
   <v>      -0.06986049      -0.03519391       0.14292867 </v>
   <v>       0.06986049      -0.03519391       0.14292867 </v>
   <v>      -0.06986049       0.03519391       0.14292867 </v>
   <v>       0.00000000      -0.03096687      -0.02014985 </v>
   <v>       0.00000000       0.03096687      -0.02014985 </v>
   <v>       0.00000000       0.03475411      -0.08528076 </v>
   <v>       0.00000000      -0.03475411      -0.08528076 </v>
   <v>       0.00000000       0.03999002      -0.03530363 </v>
   <v>       0.00000000      -0.03999002      -0.03530363 </v>
   <v>       0.04054055       0.05816711      -0.04152769 </v>
   <v>      -0.04054055      -0.05816711      -0.04152769 </v>
   <v>       0.04054055      -0.05816711      -0.04152769 </v>
   <v>      -0.04054055       0.05816711      -0.04152769 </v>
  </varray>
  <varray name="stress" >
   <v>      -1.09374858       0.00000000       0.00000000 </v>
   <v>       0.00000000       0.95164332       0.00000000 </v>
   <v>       0.00000000       0.00000000      -1.00696571 </v>
  </varray>
  <energy>
   <i name="e_fr_energy">    -76.85791739 </i>
   <i name="e_wo_entrp">    -76.85791739 </i>
   <i name="e_0_energy">      0.00000000 </i>
  </energy>
  <time name="totalsc">    1.51    1.52</time>
 </calculation>
 <calculation>
  <scstep>
   <time name="dav">    0.19    0.19</time>
   <time name="total">    0.21    0.21</time>
   <energy>
    <i name="alphaZ">     69.97949887 </i>
    <i name="ewald">  -2744.89164930 </i>
    <i name="hartreedc">   -654.93695576 </i>
    <i name="XCdc">    185.67063967 </i>
    <i name="pawpsdc">   7444.28742375 </i>
    <i name="pawaedc">  -7494.72001034 </i>
    <i name="eentropy">      0.00000000 </i>
    <i name="bandstr">   -651.33802667 </i>
    <i name="atom">   3769.08782378 </i>
    <i name="e_fr_energy">    -76.86125598 </i>
    <i name="e_wo_entrp">    -76.86125598 </i>
    <i name="e_0_energy">    -76.86125598 </i>
   </energy>
  </scstep>
  <scstep>
   <time name="diag">    0.05    0.05</time>
   <time name="diis">    0.10    0.10</time>
   <time name="orth">    0.01    0.01</time>
   <time name="total">    0.18    0.18</time>
   <energy>
    <i name="e_fr_energy">    -76.86515425 </i>
    <i name="e_wo_entrp">    -76.86515425 </i>
    <i name="e_0_energy">    -76.86515425 </i>
   </energy>
  </scstep>
  <scstep>
   <time name="diag">    0.05    0.05</time>
   <time name="diis">    0.13    0.13</time>
   <time name="orth">    0.01    0.01</time>
   <time name="total">    0.21    0.21</time>
   <energy>
    <i name="e_fr_energy">    -76.86301721 </i>
    <i name="e_wo_entrp">    -76.86301721 </i>
    <i name="e_0_energy">    -76.86301721 </i>
   </energy>
  </scstep>
  <scstep>
   <time name="diag">    0.05    0.05</time>
   <time name="diis">    0.12    0.12</time>
   <time name="orth">    0.01    0.01</time>
   <time name="total">    0.20    0.20</time>
   <energy>
    <i name="e_fr_energy">    -76.86242936 </i>
    <i name="e_wo_entrp">    -76.86242936 </i>
    <i name="e_0_energy">    -76.86242936 </i>
   </energy>
  </scstep>
  <scstep>
   <time name="diag">    0.05    0.05</time>
   <time name="diis">    0.12    0.12</time>
   <time name="orth">    0.01    0.01</time>
   <time name="total">    0.20    0.20</time>
   <energy>
    <i name="e_fr_energy">    -76.86248694 </i>
    <i name="e_wo_entrp">    -76.86248694 </i>
    <i name="e_0_energy">    -76.86248694 </i>
   </energy>
  </scstep>
  <scstep>
   <time name="diag">    0.05    0.05</time>
   <time name="diis">    0.12    0.12</time>
   <time name="orth">    0.01    0.01</time>
   <time name="total">    0.20    0.20</time>
   <energy>
    <i name="e_fr_energy">    -76.86252233 </i>
    <i name="e_wo_entrp">    -76.86252233 </i>
    <i name="e_0_energy">    -76.86252233 </i>
   </energy>
  </scstep>
  <scstep>
   <time name="diag">    0.05    0.05</time>
   <time name="diis">    0.11    0.11</time>
   <time name="orth">    0.01    0.01</time>
   <time name="total">    0.19    0.19</time>
   <energy>
    <i name="e_fr_energy">    -76.86253378 </i>
    <i name="e_wo_entrp">    -76.86253378 </i>
    <i name="e_0_energy">    -76.86253378 </i>
   </energy>
  </scstep>
  <scstep>
   <time name="diag">    0.05    0.05</time>
   <time name="diis">    0.05    0.05</time>
   <time name="orth">    0.01    0.01</time>
   <time name="total">    0.12    0.12</time>
   <energy>
    <i name="alphaZ">     69.97949887 </i>
    <i name="ewald">  -2744.89164930 </i>
    <i name="hartreedc">   -652.45770701 </i>
    <i name="XCdc">    185.48860365 </i>
    <i name="pawpsdc">   7475.39800219 </i>
    <i name="pawaedc">  -7525.80002442 </i>
    <i name="eentropy">      0.00000000 </i>
    <i name="bandstr">   -653.66707792 </i>
    <i name="atom">   3769.08782378 </i>
    <i name="e_fr_energy">    -76.86253017 </i>
    <i name="e_wo_entrp">    -76.86253017 </i>
    <i name="e_0_energy">    -76.86253017 </i>
   </energy>
  </scstep>
  <structure>
   <crystal>
    <varray name="basis" >
     <v>       7.76321183       0.00000000       0.00000000 </v>
     <v>       0.00000000       6.12005483       0.00000000 </v>
     <v>       0.00000000       0.00000000       5.93505323 </v>
    </varray>
    <i name="volume">    281.98198801 </i>
    <varray name="rec_basis" >
     <v>       0.12881266       0.00000000       0.00000000 </v>
     <v>       0.00000000       0.16339723       0.00000000 </v>
     <v>       0.00000000       0.00000000       0.16849049 </v>
    </varray>
   </crystal>
   <varray name="positions" >
    <v>       0.00000000       0.77134794       0.43919947 </v>
    <v>       0.50000000       0.22865206       0.93919947 </v>
    <v>       0.20777901       0.60495144       0.55702874 </v>
    <v>       0.29222099       0.39504856       0.05702874 </v>
    <v>       0.70777901       0.39504856       0.05702874 </v>
    <v>       0.79222099       0.60495144       0.55702874 </v>
    <v>       0.00000000       0.81415419       0.09882131 </v>
    <v>       0.50000000       0.18584581       0.59882131 </v>
    <v>       0.00000000       0.06724010       0.59403229 </v>
    <v>       0.50000000       0.93275990       0.09403229 </v>
    <v>       0.00000000       0.42762846       0.85402239 </v>
    <v>       0.50000000       0.57237154       0.35402239 </v>
    <v>       0.26653832       0.76673276       0.91350468 </v>
    <v>       0.23346168       0.23326724       0.41350468 </v>
    <v>       0.76653832       0.23326724       0.41350468 </v>
    <v>       0.73346168       0.76673276       0.91350468 </v>
   </varray>
  </structure>
  <varray name="forces" >
   <v>       0.00000000       0.20281489      -0.12836030 </v>
   <v>       0.00000000      -0.20281489      -0.12836030 </v>
   <v>       0.17225008      -0.08428895       0.06908840 </v>
   <v>      -0.17225008       0.08428895       0.06908840 </v>
   <v>       0.17225008       0.08428895       0.06908840 </v>
   <v>      -0.17225008      -0.08428895       0.06908840 </v>
   <v>       0.00000000      -0.05106391       0.09664231 </v>
   <v>       0.00000000       0.05106391       0.09664231 </v>
   <v>       0.00000000       0.03857040      -0.05130584 </v>
   <v>       0.00000000      -0.03857040      -0.05130584 </v>
   <v>       0.00000000       0.03701791      -0.02149402 </v>
   <v>       0.00000000      -0.03701791      -0.02149402 </v>
   <v>       0.03016600       0.03713770      -0.01682947 </v>
   <v>      -0.03016600      -0.03713770      -0.01682947 </v>
   <v>       0.03016600      -0.03713770      -0.01682947 </v>
   <v>      -0.03016600       0.03713770      -0.01682947 </v>
  </varray>
  <varray name="stress" >
   <v>       5.77213168       0.00000000       0.00000000 </v>
   <v>       0.00000000       3.05296868       0.00000000 </v>
   <v>       0.00000000       0.00000000      -1.88925359 </v>
  </varray>
  <energy>
   <i name="e_fr_energy">    -76.86253017 </i>
   <i name="e_wo_entrp">    -76.86253017 </i>
   <i name="e_0_energy">      0.00000000 </i>
  </energy>
  <time name="totalsc">    1.71    1.71</time>
 </calculation>
 <calculation>
  <scstep>
   <time name="dav">    0.19    0.19</time>
   <time name="total">    0.22    0.22</time>
   <energy>
    <i name="alphaZ">     70.00092764 </i>
    <i name="ewald">  -2746.44346185 </i>
    <i name="hartreedc">   -651.53827685 </i>
    <i name="XCdc">    185.48398528 </i>
    <i name="pawpsdc">   7474.90494146 </i>
    <i name="pawaedc">  -7525.30707608 </i>
    <i name="eentropy">      0.00000000 </i>
    <i name="bandstr">   -653.05376948 </i>
    <i name="atom">   3769.08782378 </i>
    <i name="e_fr_energy">    -76.86490612 </i>
    <i name="e_wo_entrp">    -76.86490612 </i>
    <i name="e_0_energy">    -76.86490612 </i>
   </energy>
  </scstep>
  <scstep>
   <time name="diag">    0.05    0.05</time>
   <time name="diis">    0.10    0.10</time>
   <time name="orth">    0.01    0.01</time>
   <time name="total">    0.18    0.18</time>
   <energy>
    <i name="e_fr_energy">    -76.86802443 </i>
    <i name="e_wo_entrp">    -76.86802443 </i>
    <i name="e_0_energy">    -76.86802443 </i>
   </energy>
  </scstep>
  <scstep>
   <time name="diag">    0.05    0.05</time>
   <time name="diis">    0.13    0.13</time>
   <time name="orth">    0.01    0.01</time>
   <time name="total">    0.21    0.21</time>
   <energy>
    <i name="e_fr_energy">    -76.86779637 </i>
    <i name="e_wo_entrp">    -76.86779637 </i>
    <i name="e_0_energy">    -76.86779637 </i>
   </energy>
  </scstep>
  <scstep>
   <time name="diag">    0.05    0.05</time>
   <time name="diis">    0.12    0.12</time>
   <time name="orth">    0.01    0.01</time>
   <time name="total">    0.20    0.20</time>
   <energy>
    <i name="e_fr_energy">    -76.86772426 </i>
    <i name="e_wo_entrp">    -76.86772426 </i>
    <i name="e_0_energy">    -76.86772426 </i>
   </energy>
  </scstep>
  <scstep>
   <time name="diag">    0.05    0.05</time>
   <time name="diis">    0.12    0.12</time>
   <time name="orth">    0.01    0.01</time>
   <time name="total">    0.20    0.20</time>
   <energy>
    <i name="e_fr_energy">    -76.86774999 </i>
    <i name="e_wo_entrp">    -76.86774999 </i>
    <i name="e_0_energy">    -76.86774999 </i>
   </energy>
  </scstep>
  <scstep>
   <time name="diag">    0.05    0.05</time>
   <time name="diis">    0.07    0.07</time>
   <time name="orth">    0.01    0.01</time>
   <time name="total">    0.13    0.13</time>
   <energy>
    <i name="alphaZ">     70.00092764 </i>
    <i name="ewald">  -2746.44346185 </i>
    <i name="hartreedc">   -651.30679335 </i>
    <i name="XCdc">    185.46517271 </i>
    <i name="pawpsdc">   7448.96848846 </i>
    <i name="pawaedc">  -7499.35032353 </i>
    <i name="eentropy">      0.00000000 </i>
    <i name="bandstr">   -653.28958868 </i>
    <i name="atom">   3769.08782378 </i>
    <i name="e_fr_energy">    -76.86775482 </i>
    <i name="e_wo_entrp">    -76.86775482 </i>
    <i name="e_0_energy">    -76.86775482 </i>
   </energy>
  </scstep>
  <structure>
   <crystal>
    <varray name="basis" >
     <v>       7.75994656       0.00000000       0.00000000 </v>
     <v>       0.00000000       6.12386831       0.00000000 </v>
     <v>       0.00000000       0.00000000       5.93203668 </v>
    </varray>
    <i name="volume">    281.89566735 </i>
    <varray name="rec_basis" >
     <v>       0.12886687       0.00000000       0.00000000 </v>
     <v>       0.00000000       0.16329548       0.00000000 </v>
     <v>       0.00000000       0.00000000       0.16857617 </v>
    </varray>
   </crystal>
   <varray name="positions" >
    <v>       0.00000000       0.77185921       0.43862954 </v>
    <v>       0.50000000       0.22814079       0.93862954 </v>
    <v>       0.20823273       0.60518376       0.55819319 </v>
    <v>       0.29176727       0.39481624       0.05819319 </v>
    <v>       0.70823273       0.39481624       0.05819319 </v>
    <v>       0.79176727       0.60518376       0.55819319 </v>
    <v>       0.00000000       0.81389745       0.09872173 </v>
    <v>       0.50000000       0.18610255       0.59872173 </v>
    <v>       0.00000000       0.06748739       0.59336433 </v>
    <v>       0.50000000       0.93251261       0.09336433 </v>
    <v>       0.00000000       0.42796012       0.85372577 </v>
    <v>       0.50000000       0.57203988       0.35372577 </v>
    <v>       0.26680013       0.76721862       0.91315728 </v>
    <v>       0.23319987       0.23278138       0.41315728 </v>
    <v>       0.76680013       0.23278138       0.41315728 </v>
    <v>       0.73319987       0.76721862       0.91315728 </v>
   </varray>
  </structure>
  <varray name="forces" >
   <v>       0.00000000       0.09091885      -0.00405650 </v>
   <v>       0.00000000      -0.09091885      -0.00405650 </v>
   <v>       0.08111497      -0.05270693       0.00063083 </v>
   <v>      -0.08111497       0.05270693       0.00063083 </v>
   <v>       0.08111497       0.05270693       0.00063083 </v>
   <v>      -0.08111497      -0.05270693       0.00063083 </v>
   <v>       0.00000000      -0.04809843       0.05823029 </v>
   <v>       0.00000000       0.04809843       0.05823029 </v>
   <v>       0.00000000       0.04238434      -0.02799716 </v>
   <v>       0.00000000      -0.04238434      -0.02799716 </v>
   <v>       0.00000000       0.03850301      -0.01824157 </v>
   <v>       0.00000000      -0.03850301      -0.01824157 </v>
   <v>       0.02014746       0.02238280      -0.00459836 </v>
   <v>      -0.02014746      -0.02238280      -0.00459836 </v>
   <v>       0.02014746      -0.02238280      -0.00459836 </v>
   <v>      -0.02014746       0.02238280      -0.00459836 </v>
  </varray>
  <varray name="stress" >
   <v>       3.08421037       0.00000000       0.00000000 </v>
   <v>       0.00000000       2.05642791       0.00000000 </v>
   <v>       0.00000000       0.00000000      -0.74929615 </v>
  </varray>
  <energy>
   <i name="e_fr_energy">    -76.86775482 </i>
   <i name="e_wo_entrp">    -76.86775482 </i>
   <i name="e_0_energy">      0.00000000 </i>
  </energy>
  <time name="totalsc">    1.34    1.34</time>
 </calculation>
 <calculation>
  <scstep>
   <time name="dav">    0.19    0.19</time>
   <time name="total">    0.22    0.22</time>
   <energy>
    <i name="alphaZ">     70.01216335 </i>
    <i name="ewald">  -2747.24033566 </i>
    <i name="hartreedc">   -650.83248827 </i>
    <i name="XCdc">    185.46291023 </i>
    <i name="pawpsdc">   7448.76275551 </i>
    <i name="pawaedc">  -7499.14426000 </i>
    <i name="eentropy">      0.00000000 </i>
    <i name="bandstr">   -652.97628558 </i>
    <i name="atom">   3769.08782378 </i>
    <i name="e_fr_energy">    -76.86771664 </i>
    <i name="e_wo_entrp">    -76.86771664 </i>
    <i name="e_0_energy">    -76.86771664 </i>
   </energy>
  </scstep>
  <scstep>
   <time name="diag">    0.05    0.05</time>
   <time name="diis">    0.11    0.11</time>
   <time name="orth">    0.01    0.01</time>
   <time name="total">    0.19    0.19</time>
   <energy>
    <i name="e_fr_energy">    -76.86856277 </i>
    <i name="e_wo_entrp">    -76.86856277 </i>
    <i name="e_0_energy">    -76.86856277 </i>
   </energy>
  </scstep>
  <scstep>
   <time name="diag">    0.05    0.05</time>
   <time name="diis">    0.13    0.13</time>
   <time name="orth">    0.01    0.01</time>
   <time name="total">    0.21    0.21</time>
   <energy>
    <i name="e_fr_energy">    -76.86853813 </i>
    <i name="e_wo_entrp">    -76.86853813 </i>
    <i name="e_0_energy">    -76.86853813 </i>
   </energy>
  </scstep>
  <scstep>
   <time name="diag">    0.05    0.05</time>
   <time name="diis">    0.11    0.11</time>
   <time name="orth">    0.01    0.01</time>
   <time name="total">    0.19    0.19</time>
   <energy>
    <i name="e_fr_energy">    -76.86852681 </i>
    <i name="e_wo_entrp">    -76.86852681 </i>
    <i name="e_0_energy">    -76.86852681 </i>
   </energy>
  </scstep>
  <scstep>
   <time name="diag">    0.05    0.05</time>
   <time name="diis">    0.06    0.06</time>
   <time name="orth">    0.01    0.01</time>
   <time name="total">    0.12    0.12</time>
   <energy>
    <i name="alphaZ">     70.01216335 </i>
    <i name="ewald">  -2747.24033566 </i>
    <i name="hartreedc">   -650.71469329 </i>
    <i name="XCdc">    185.45388031 </i>
    <i name="pawpsdc">   7437.01300688 </i>
    <i name="pawaedc">  -7487.38373795 </i>
    <i name="eentropy">      0.00000000 </i>
    <i name="bandstr">   -653.09663067 </i>
    <i name="atom">   3769.08782378 </i>
    <i name="e_fr_energy">    -76.86852324 </i>
    <i name="e_wo_entrp">    -76.86852324 </i>
    <i name="e_0_energy">    -76.86852324 </i>
   </energy>
  </scstep>
  <structure>
   <crystal>
    <varray name="basis" >
     <v>       7.75823839       0.00000000       0.00000000 </v>
     <v>       0.00000000       6.12586327       0.00000000 </v>
     <v>       0.00000000       0.00000000       5.93045862 </v>
    </varray>
    <i name="volume">    281.85042808 </i>
    <varray name="rec_basis" >
     <v>       0.12889524       0.00000000       0.00000000 </v>
     <v>       0.00000000       0.16324230       0.00000000 </v>
     <v>       0.00000000       0.00000000       0.16862102 </v>
    </varray>
   </crystal>
   <varray name="positions" >
    <v>       0.00000000       0.77212650       0.43833123 </v>
    <v>       0.50000000       0.22787350       0.93833123 </v>
    <v>       0.20847018       0.60530521       0.55880266 </v>
    <v>       0.29152982       0.39469479       0.05880266 </v>
    <v>       0.70847018       0.39469479       0.05880266 </v>
    <v>       0.79152982       0.60530521       0.55880266 </v>
    <v>       0.00000000       0.81376322       0.09866961 </v>
    <v>       0.50000000       0.18623678       0.59866961 </v>
    <v>       0.00000000       0.06761668       0.59301473 </v>
    <v>       0.50000000       0.93238332       0.09301473 </v>
    <v>       0.00000000       0.42813352       0.85357053 </v>
    <v>       0.50000000       0.57186648       0.35357053 </v>
    <v>       0.26693716       0.76747264       0.91297544 </v>
    <v>       0.23306284       0.23252736       0.41297544 </v>
    <v>       0.76693716       0.23252736       0.41297544 </v>
    <v>       0.73306284       0.76747264       0.91297544 </v>
   </varray>
  </structure>
  <varray name="forces" >
   <v>       0.00000000       0.03952814       0.05746429 </v>
   <v>       0.00000000      -0.03952814       0.05746429 </v>
   <v>       0.04038445      -0.03518735      -0.02905117 </v>
   <v>      -0.04038445       0.03518735      -0.02905117 </v>
   <v>       0.04038445       0.03518735      -0.02905117 </v>
   <v>      -0.04038445      -0.03518735      -0.02905117 </v>
   <v>       0.00000000      -0.04786583       0.03905250 </v>
   <v>       0.00000000       0.04786583       0.03905250 </v>
   <v>       0.00000000       0.04401143      -0.02290138 </v>
   <v>       0.00000000      -0.04401143      -0.02290138 </v>
   <v>       0.00000000       0.03902718      -0.01720511 </v>
   <v>       0.00000000      -0.03902718      -0.01720511 </v>
   <v>       0.01465787       0.01454774       0.00084602 </v>
   <v>      -0.01465787      -0.01454774       0.00084602 </v>
   <v>       0.01465787      -0.01454774       0.00084602 </v>
   <v>      -0.01465787       0.01454774       0.00084602 </v>
  </varray>
  <varray name="stress" >
   <v>       1.79444816       0.00000000       0.00000000 </v>
   <v>       0.00000000       1.60318851       0.00000000 </v>
   <v>       0.00000000       0.00000000      -0.20761914 </v>
  </varray>
  <energy>
   <i name="e_fr_energy">    -76.86852324 </i>
   <i name="e_wo_entrp">    -76.86852324 </i>
   <i name="e_0_energy">      0.00000000 </i>
  </energy>
  <time name="totalsc">    1.12    1.13</time>
 </calculation>
 <calculation>
  <scstep>
   <time name="dav">    0.19    0.19</time>
   <time name="total">    0.22    0.22</time>
   <energy>
    <i name="alphaZ">     69.95237969 </i>
    <i name="ewald">  -2746.37826546 </i>
    <i name="hartreedc">   -650.59612412 </i>
    <i name="XCdc">    185.39501577 </i>
    <i name="pawpsdc">   7435.59302274 </i>
    <i name="pawaedc">  -7485.96237866 </i>
    <i name="eentropy">      0.00000000 </i>
    <i name="bandstr">   -653.96116238 </i>
    <i name="atom">   3769.08782378 </i>
    <i name="e_fr_energy">    -76.86968865 </i>
    <i name="e_wo_entrp">    -76.86968865 </i>
    <i name="e_0_energy">    -76.86968865 </i>
   </energy>
  </scstep>
  <scstep>
   <time name="diag">    0.05    0.05</time>
   <time name="diis">    0.10    0.10</time>
   <time name="orth">    0.01    0.01</time>
   <time name="total">    0.18    0.18</time>
   <energy>
    <i name="e_fr_energy">    -76.86962967 </i>
    <i name="e_wo_entrp">    -76.86962967 </i>
    <i name="e_0_energy">    -76.86962967 </i>
   </energy>
  </scstep>
  <scstep>
   <time name="diag">    0.05    0.05</time>
   <time name="diis">    0.11    0.11</time>
   <time name="orth">    0.01    0.01</time>
   <time name="total">    0.19    0.19</time>
   <energy>
    <i name="e_fr_energy">    -76.86959152 </i>
    <i name="e_wo_entrp">    -76.86959152 </i>
    <i name="e_0_energy">    -76.86959152 </i>
   </energy>
  </scstep>
  <scstep>
   <time name="diag">    0.05    0.05</time>
   <time name="diis">    0.07    0.07</time>
   <time name="orth">    0.01    0.01</time>
   <time name="total">    0.13    0.13</time>
   <energy>
    <i name="alphaZ">     69.95237969 </i>
    <i name="ewald">  -2746.37826546 </i>
    <i name="hartreedc">   -651.04132719 </i>
    <i name="XCdc">    185.42749190 </i>
    <i name="pawpsdc">   7423.04460567 </i>
    <i name="pawaedc">  -7473.41398691 </i>
    <i name="eentropy">      0.00000000 </i>
    <i name="bandstr">   -653.54829915 </i>
    <i name="atom">   3769.08782378 </i>
    <i name="e_fr_energy">    -76.86957767 </i>
    <i name="e_wo_entrp">    -76.86957767 </i>
    <i name="e_0_energy">    -76.86957767 </i>
   </energy>
  </scstep>
  <structure>
   <crystal>
    <varray name="basis" >
     <v>       7.76214691       0.00000000       0.00000000 </v>
     <v>       0.00000000       6.12805096       0.00000000 </v>
     <v>       0.00000000       0.00000000       5.93042034 </v>
    </varray>
    <i name="volume">    282.09130696 </i>
    <varray name="rec_basis" >
     <v>       0.12883034       0.00000000       0.00000000 </v>
     <v>       0.00000000       0.16318402       0.00000000 </v>
     <v>       0.00000000       0.00000000       0.16862211 </v>
    </varray>
   </crystal>
   <varray name="positions" >
    <v>       0.00000000       0.77223092       0.43861251 </v>
    <v>       0.50000000       0.22776908       0.93861251 </v>
    <v>       0.20855051       0.60514833       0.55857883 </v>
    <v>       0.29144949       0.39485167       0.05857883 </v>
    <v>       0.70855051       0.39485167       0.05857883 </v>
    <v>       0.79144949       0.60514833       0.55857883 </v>
    <v>       0.00000000       0.81360308       0.09883397 </v>
    <v>       0.50000000       0.18639692       0.59883397 </v>
    <v>       0.00000000       0.06776288       0.59298600 </v>
    <v>       0.50000000       0.93223712       0.09298600 </v>
    <v>       0.00000000       0.42825272       0.85352983 </v>
    <v>       0.50000000       0.57174728       0.35352983 </v>
    <v>       0.26695727       0.76748339       0.91301116 </v>
    <v>       0.23304273       0.23251661       0.41301116 </v>
    <v>       0.76695727       0.23251661       0.41301116 </v>
    <v>       0.73304273       0.76748339       0.91301116 </v>
   </varray>
  </structure>
  <varray name="forces" >
   <v>       0.00000000       0.01668475       0.04429986 </v>
   <v>       0.00000000      -0.01668475       0.04429986 </v>
   <v>       0.01820226      -0.02159701      -0.02487134 </v>
   <v>      -0.01820226       0.02159701      -0.02487134 </v>
   <v>       0.01820226       0.02159701      -0.02487134 </v>
   <v>      -0.01820226      -0.02159701      -0.02487134 </v>
   <v>       0.00000000      -0.04787997       0.04007645 </v>
   <v>       0.00000000       0.04787997       0.04007645 </v>
   <v>       0.00000000       0.03149804      -0.01622856 </v>
   <v>       0.00000000      -0.03149804      -0.01622856 </v>
   <v>       0.00000000       0.03952449      -0.01677310 </v>
   <v>       0.00000000      -0.03952449      -0.01677310 </v>
   <v>       0.01106170       0.01310988      -0.00081599 </v>
   <v>      -0.01106170      -0.01310988      -0.00081599 </v>
   <v>       0.01106170      -0.01310988      -0.00081599 </v>
   <v>      -0.01106170       0.01310988      -0.00081599 </v>
  </varray>
  <varray name="stress" >
   <v>       1.21666262       0.00000000       0.00000000 </v>
   <v>       0.00000000       1.09567142       0.00000000 </v>
   <v>       0.00000000       0.00000000      -0.15867073 </v>
  </varray>
  <energy>
   <i name="e_fr_energy">    -76.86957767 </i>
   <i name="e_wo_entrp">    -76.86957767 </i>
   <i name="e_0_energy">      0.00000000 </i>
  </energy>
  <time name="totalsc">    0.92    0.92</time>
 </calculation>
 <calculation>
  <scstep>
   <time name="dav">    0.18    0.18</time>
   <time name="total">    0.20    0.21</time>
   <energy>
    <i name="alphaZ">     69.77732150 </i>
    <i name="ewald">  -2743.85328403 </i>
    <i name="hartreedc">   -650.72910279 </i>
    <i name="XCdc">    185.25800391 </i>
    <i name="pawpsdc">   7423.36082847 </i>
    <i name="pawaedc">  -7473.72988099 </i>
    <i name="eentropy">      0.00000000 </i>
    <i name="bandstr">   -656.04282788 </i>
    <i name="atom">   3769.08782378 </i>
    <i name="e_fr_energy">    -76.87111802 </i>
    <i name="e_wo_entrp">    -76.87111802 </i>
    <i name="e_0_energy">    -76.87111802 </i>
   </energy>
  </scstep>
  <scstep>
   <time name="diag">    0.05    0.05</time>
   <time name="diis">    0.10    0.10</time>
   <time name="orth">    0.01    0.01</time>
   <time name="total">    0.19    0.19</time>
   <energy>
    <i name="e_fr_energy">    -76.87064072 </i>
    <i name="e_wo_entrp">    -76.87064072 </i>
    <i name="e_0_energy">    -76.87064072 </i>
   </energy>
  </scstep>
  <scstep>
   <time name="diag">    0.05    0.05</time>
   <time name="diis">    0.12    0.12</time>
   <time name="orth">    0.01    0.01</time>
   <time name="total">    0.20    0.20</time>
   <energy>
    <i name="e_fr_energy">    -76.87027926 </i>
    <i name="e_wo_entrp">    -76.87027926 </i>
    <i name="e_0_energy">    -76.87027926 </i>
   </energy>
  </scstep>
  <scstep>
   <time name="diag">    0.05    0.05</time>
   <time name="diis">    0.11    0.11</time>
   <time name="orth">    0.01    0.01</time>
   <time name="total">    0.20    0.20</time>
   <energy>
    <i name="e_fr_energy">    -76.87020755 </i>
    <i name="e_wo_entrp">    -76.87020755 </i>
    <i name="e_0_energy">    -76.87020755 </i>
   </energy>
  </scstep>
  <scstep>
   <time name="diag">    0.05    0.05</time>
   <time name="diis">    0.08    0.08</time>
   <time name="orth">    0.01    0.01</time>
   <time name="total">    0.15    0.15</time>
   <energy>
    <i name="alphaZ">     69.77732150 </i>
    <i name="ewald">  -2743.85328403 </i>
    <i name="hartreedc">   -652.06359167 </i>
    <i name="XCdc">    185.35693763 </i>
    <i name="pawpsdc">   7391.17247179 </i>
    <i name="pawaedc">  -7441.55120862 </i>
    <i name="eentropy">      0.00000000 </i>
    <i name="bandstr">   -654.79667322 </i>
    <i name="atom">   3769.08782378 </i>
    <i name="e_fr_energy">    -76.87020284 </i>
    <i name="e_wo_entrp">    -76.87020284 </i>
    <i name="e_0_energy">    -76.87020284 </i>
   </energy>
  </scstep>
  <structure>
   <crystal>
    <varray name="basis" >
     <v>       7.77362112       0.00000000       0.00000000 </v>
     <v>       0.00000000       6.13447335       0.00000000 </v>
     <v>       0.00000000       0.00000000       5.93030798 </v>
    </varray>
    <i name="volume">    282.79902105 </i>
    <varray name="rec_basis" >
     <v>       0.12864018       0.00000000       0.00000000 </v>
     <v>       0.00000000       0.16301318       0.00000000 </v>
     <v>       0.00000000       0.00000000       0.16862531 </v>
    </varray>
   </crystal>
   <varray name="positions" >
    <v>       0.00000000       0.77253737       0.43943828 </v>
    <v>       0.50000000       0.22746263       0.93943828 </v>
    <v>       0.20878623       0.60468796       0.55792174 </v>
    <v>       0.29121377       0.39531204       0.05792174 </v>
    <v>       0.70878623       0.39531204       0.05792174 </v>
    <v>       0.79121377       0.60468796       0.55792174 </v>
    <v>       0.00000000       0.81313311       0.09931647 </v>
    <v>       0.50000000       0.18686689       0.59931647 </v>
    <v>       0.00000000       0.06819194       0.59290167 </v>
    <v>       0.50000000       0.93180806       0.09290167 </v>
    <v>       0.00000000       0.42860252       0.85341036 </v>
    <v>       0.50000000       0.57139748       0.35341036 </v>
    <v>       0.26701628       0.76751493       0.91311602 </v>
    <v>       0.23298372       0.23248507       0.41311602 </v>
    <v>       0.76701628       0.23248507       0.41311602 </v>
    <v>       0.73298372       0.76751493       0.91311602 </v>
   </varray>
  </structure>
  <varray name="forces" >
   <v>       0.00000000      -0.04876855       0.01178180 </v>
   <v>       0.00000000       0.04876855       0.01178180 </v>
   <v>      -0.04625307       0.03692420       0.00579787 </v>
   <v>       0.04625307      -0.03692420       0.00579787 </v>
   <v>      -0.04625307      -0.03692420       0.00579787 </v>
   <v>       0.04625307       0.03692420       0.00579787 </v>
   <v>       0.00000000      -0.04255213       0.02811769 </v>
   <v>       0.00000000       0.04255213       0.02811769 </v>
   <v>       0.00000000      -0.00218521      -0.00884443 </v>
   <v>       0.00000000       0.00218521      -0.00884443 </v>
   <v>       0.00000000       0.04023362      -0.01887830 </v>
   <v>       0.00000000      -0.04023362      -0.01887830 </v>
   <v>       0.00160700       0.01061274      -0.01188626 </v>
   <v>      -0.00160700      -0.01061274      -0.01188626 </v>
   <v>       0.00160700      -0.01061274      -0.01188626 </v>
   <v>      -0.00160700       0.01061274      -0.01188626 </v>
  </varray>
  <varray name="stress" >
   <v>      -2.02661060       0.00000000       0.00000000 </v>
   <v>       0.00000000      -1.17964917       0.00000000 </v>
   <v>       0.00000000       0.00000000      -0.52021392 </v>
  </varray>
  <energy>
   <i name="e_fr_energy">    -76.87020284 </i>
   <i name="e_wo_entrp">    -76.87020284 </i>
   <i name="e_0_energy">      0.00000000 </i>
  </energy>
  <time name="totalsc">    1.14    1.14</time>
 </calculation>
 <calculation>
  <scstep>
   <time name="dav">    0.19    0.19</time>
   <time name="total">    0.22    0.22</time>
   <energy>
    <i name="alphaZ">     69.82723707 </i>
    <i name="ewald">  -2744.57355266 </i>
    <i name="hartreedc">   -652.18133803 </i>
    <i name="XCdc">    185.40794558 </i>
    <i name="pawpsdc">   7393.61269047 </i>
    <i name="pawaedc">  -7443.98857405 </i>
    <i name="eentropy">      0.00000000 </i>
    <i name="bandstr">   -654.06274838 </i>
    <i name="atom">   3769.08782378 </i>
    <i name="e_fr_energy">    -76.87051622 </i>
    <i name="e_wo_entrp">    -76.87051622 </i>
    <i name="e_0_energy">    -76.87051622 </i>
   </energy>
  </scstep>
  <scstep>
   <time name="diag">    0.05    0.05</time>
   <time name="diis">    0.08    0.08</time>
   <time name="orth">    0.01    0.01</time>
   <time name="total">    0.16    0.16</time>
   <energy>
    <i name="e_fr_energy">    -76.87048697 </i>
    <i name="e_wo_entrp">    -76.87048697 </i>
    <i name="e_0_energy">    -76.87048697 </i>
   </energy>
  </scstep>
  <scstep>
   <time name="diag">    0.05    0.05</time>
   <time name="diis">    0.09    0.09</time>
   <time name="orth">    0.01    0.01</time>
   <time name="total">    0.18    0.18</time>
   <energy>
    <i name="e_fr_energy">    -76.87042725 </i>
    <i name="e_wo_entrp">    -76.87042725 </i>
    <i name="e_0_energy">    -76.87042725 </i>
   </energy>
  </scstep>
  <scstep>
   <time name="diag">    0.05    0.05</time>
   <time name="diis">    0.05    0.05</time>
   <time name="orth">    0.01    0.01</time>
   <time name="total">    0.11    0.11</time>
   <energy>
    <i name="alphaZ">     69.82723707 </i>
    <i name="ewald">  -2744.57355266 </i>
    <i name="hartreedc">   -651.81761711 </i>
    <i name="XCdc">    185.38219806 </i>
    <i name="pawpsdc">   7405.77459292 </i>
    <i name="pawaedc">  -7456.14536272 </i>
    <i name="eentropy">      0.00000000 </i>
    <i name="bandstr">   -654.40573916 </i>
    <i name="atom">   3769.08782378 </i>
    <i name="e_fr_energy">    -76.87041982 </i>
    <i name="e_wo_entrp">    -76.87041982 </i>
    <i name="e_0_energy">    -76.87041982 </i>
   </energy>
  </scstep>
  <structure>
   <crystal>
    <varray name="basis" >
     <v>       7.77034494       0.00000000       0.00000000 </v>
     <v>       0.00000000       6.13263959       0.00000000 </v>
     <v>       0.00000000       0.00000000       5.93034006 </v>
    </varray>
    <i name="volume">    282.59686392 </i>
    <varray name="rec_basis" >
     <v>       0.12869442       0.00000000       0.00000000 </v>
     <v>       0.00000000       0.16306192       0.00000000 </v>
     <v>       0.00000000       0.00000000       0.16862439 </v>
    </varray>
   </crystal>
   <varray name="positions" >
    <v>       0.00000000       0.77244996       0.43920250 </v>
    <v>       0.50000000       0.22755004       0.93920250 </v>
    <v>       0.20871902       0.60481927       0.55810936 </v>
    <v>       0.29128098       0.39518073       0.05810936 </v>
    <v>       0.70871902       0.39518073       0.05810936 </v>
    <v>       0.79128098       0.60481927       0.55810936 </v>
    <v>       0.00000000       0.81326716       0.09917870 </v>
    <v>       0.50000000       0.18673284       0.59917870 </v>
    <v>       0.00000000       0.06806956       0.59292575 </v>
    <v>       0.50000000       0.93193044       0.09292575 </v>
    <v>       0.00000000       0.42850275       0.85344447 </v>
    <v>       0.50000000       0.57149725       0.35344447 </v>
    <v>       0.26699945       0.76750594       0.91308608 </v>
    <v>       0.23300055       0.23249406       0.41308608 </v>
    <v>       0.76699945       0.23249406       0.41308608 </v>
    <v>       0.73300055       0.76750594       0.91308608 </v>
   </varray>
  </structure>
  <varray name="forces" >
   <v>      -0.00000000      -0.03004911       0.02563328 </v>
   <v>      -0.00000000       0.03004911       0.02563328 </v>
[...]
       <r>   -9.1004    1.0000 </r>
       <r>   -4.9547    1.0000 </r>
       <r>   -4.7594    1.0000 </r>
       <r>   -2.2386    1.0000 </r>
       <r>   -2.1955    1.0000 </r>
       <r>   -2.0912    1.0000 </r>
       <r>   -2.0304    1.0000 </r>
       <r>   -1.7892    1.0000 </r>
       <r>   -1.6479    1.0000 </r>
       <r>   -0.0413    1.0000 </r>
       <r>    0.1938    1.0000 </r>
       <r>    0.2737    1.0000 </r>
       <r>    0.4422    1.0000 </r>
       <r>    0.6059    1.0000 </r>
       <r>    0.7113    1.0000 </r>
       <r>    0.9289    1.0000 </r>
       <r>    1.0151    1.0000 </r>
       <r>    1.1500    1.0000 </r>
       <r>    1.2781    1.0000 </r>
       <r>    1.6508    1.0000 </r>
       <r>    2.0721    1.0000 </r>
       <r>    2.2283    1.0000 </r>
       <r>    2.3231    1.0000 </r>
       <r>    2.4550    1.0000 </r>
       <r>    2.5165    1.0000 </r>
       <r>    5.5408    0.0000 </r>
       <r>    5.8844    0.0000 </r>
       <r>    6.5124    0.0000 </r>
       <r>    6.7596    0.0000 </r>
       <r>    6.8022    0.0000 </r>
       <r>    6.9771    0.0000 </r>
       <r>    7.1088    0.0000 </r>
       <r>    7.2270    0.0000 </r>
       <r>    8.5039    0.0000 </r>
       <r>    8.6685    0.0000 </r>
      </set>
      <set comment="kpoint 8">
       <r>  -41.4185    1.0000 </r>
       <r>  -41.4184    1.0000 </r>
       <r>  -40.6946    1.0000 </r>
       <r>  -40.6946    1.0000 </r>
       <r>  -40.6941    1.0000 </r>
       <r>  -40.6940    1.0000 </r>
       <r>  -12.2586    1.0000 </r>
       <r>  -12.2393    1.0000 </r>
       <r>   -9.4506    1.0000 </r>
       <r>   -9.4359    1.0000 </r>
       <r>   -9.3282    1.0000 </r>
       <r>   -9.2947    1.0000 </r>
       <r>   -9.1251    1.0000 </r>
       <r>   -9.1002    1.0000 </r>
       <r>   -4.8729    1.0000 </r>
       <r>   -4.7910    1.0000 </r>
       <r>   -2.2388    1.0000 </r>
       <r>   -2.2033    1.0000 </r>
       <r>   -2.0231    1.0000 </r>
       <r>   -1.9423    1.0000 </r>
       <r>   -1.7896    1.0000 </r>
       <r>   -1.7163    1.0000 </r>
       <r>   -0.1228    1.0000 </r>
       <r>   -0.0031    1.0000 </r>
       <r>    0.2484    1.0000 </r>
       <r>    0.3346    1.0000 </r>
       <r>    0.5688    1.0000 </r>
       <r>    0.6039    1.0000 </r>
       <r>    1.0073    1.0000 </r>
       <r>    1.0847    1.0000 </r>
       <r>    1.3100    1.0000 </r>
       <r>    1.3773    1.0000 </r>
       <r>    1.6586    1.0000 </r>
       <r>    1.8850    1.0000 </r>
       <r>    2.2281    1.0000 </r>
       <r>    2.2608    1.0000 </r>
       <r>    2.4888    1.0000 </r>
       <r>    2.5809    1.0000 </r>
       <r>    5.7043    0.0000 </r>
       <r>    5.8666    0.0000 </r>
       <r>    6.6342    0.0000 </r>
       <r>    6.6525    0.0000 </r>
       <r>    6.9985    0.0000 </r>
       <r>    7.1233    0.0000 </r>
       <r>    7.2910    0.0000 </r>
       <r>    7.3859    0.0000 </r>
       <r>    8.5399    0.0000 </r>
       <r>    8.6874    0.0000 </r>
      </set>
     </set>
    </set>
   </array>
  </eigenvalues>
  <separator name="orbital magnetization" >
   <v name="MAGDIPOLOUT">      0.00000000      0.00000000      0.00000000</v>
  </separator>
  <dos>
   <i name="efermi">      2.79725355 </i>
   <total>
    <array>
     <dimension dim="1">gridpoints</dimension>
     <dimension dim="2">spin</dimension>
     <field>energy</field>
     <field>total</field>
     <field>integrated</field>
     <set>
      <set comment="spin 1">
       <r>   -43.9243     0.0000     0.0000 </r>
       <r>   -43.7406     0.0000     0.0000 </r>
       <r>   -43.5568     0.0000     0.0000 </r>
       <r>   -43.3730     0.0000     0.0000 </r>
       <r>   -43.1893     0.0000     0.0000 </r>
       <r>   -43.0055     0.0000     0.0000 </r>
       <r>   -42.8217     0.0000     0.0000 </r>
       <r>   -42.6380     0.0000     0.0000 </r>
       <r>   -42.4542     0.0000     0.0000 </r>
       <r>   -42.2705     0.0000     0.0000 </r>
       <r>   -42.0867     0.0000     0.0000 </r>
       <r>   -41.9029     0.0000     0.0000 </r>
       <r>   -41.7192     0.0000     0.0000 </r>
       <r>   -41.5354     0.0000     0.0000 </r>
       <r>   -41.3516     0.0000     4.0000 </r>
       <r>   -41.1679     0.0000     4.0000 </r>
       <r>   -40.9841     0.0000     4.0000 </r>
       <r>   -40.8004     0.0000     4.0000 </r>
       <r>   -40.6166     0.0000    12.0000 </r>
       <r>   -40.4328     0.0000    12.0000 </r>
       <r>   -40.2491     0.0000    12.0000 </r>
       <r>   -40.0653     0.0000    12.0000 </r>
       <r>   -39.8815     0.0000    12.0000 </r>
       <r>   -39.6978     0.0000    12.0000 </r>
       <r>   -39.5140     0.0000    12.0000 </r>
       <r>   -39.3303     0.0000    12.0000 </r>
       <r>   -39.1465     0.0000    12.0000 </r>
       <r>   -38.9627     0.0000    12.0000 </r>
       <r>   -38.7790     0.0000    12.0000 </r>
       <r>   -38.5952     0.0000    12.0000 </r>
       <r>   -38.4114     0.0000    12.0000 </r>
       <r>   -38.2277     0.0000    12.0000 </r>
       <r>   -38.0439     0.0000    12.0000 </r>
       <r>   -37.8602     0.0000    12.0000 </r>
       <r>   -37.6764     0.0000    12.0000 </r>
       <r>   -37.4926     0.0000    12.0000 </r>
       <r>   -37.3089     0.0000    12.0000 </r>
       <r>   -37.1251     0.0000    12.0000 </r>
       <r>   -36.9413     0.0000    12.0000 </r>
       <r>   -36.7576     0.0000    12.0000 </r>
       <r>   -36.5738     0.0000    12.0000 </r>
       <r>   -36.3901     0.0000    12.0000 </r>
       <r>   -36.2063     0.0000    12.0000 </r>
       <r>   -36.0225     0.0000    12.0000 </r>
       <r>   -35.8388     0.0000    12.0000 </r>
       <r>   -35.6550     0.0000    12.0000 </r>
       <r>   -35.4713     0.0000    12.0000 </r>
       <r>   -35.2875     0.0000    12.0000 </r>
       <r>   -35.1037     0.0000    12.0000 </r>
       <r>   -34.9200     0.0000    12.0000 </r>
       <r>   -34.7362     0.0000    12.0000 </r>
       <r>   -34.5524     0.0000    12.0000 </r>
       <r>   -34.3687     0.0000    12.0000 </r>
       <r>   -34.1849     0.0000    12.0000 </r>
       <r>   -34.0012     0.0000    12.0000 </r>
       <r>   -33.8174     0.0000    12.0000 </r>
       <r>   -33.6336     0.0000    12.0000 </r>
       <r>   -33.4499     0.0000    12.0000 </r>
       <r>   -33.2661     0.0000    12.0000 </r>
       <r>   -33.0823     0.0000    12.0000 </r>
       <r>   -32.8986     0.0000    12.0000 </r>
       <r>   -32.7148     0.0000    12.0000 </r>
       <r>   -32.5311     0.0000    12.0000 </r>
       <r>   -32.3473     0.0000    12.0000 </r>
       <r>   -32.1635     0.0000    12.0000 </r>
       <r>   -31.9798     0.0000    12.0000 </r>
       <r>   -31.7960     0.0000    12.0000 </r>
       <r>   -31.6122     0.0000    12.0000 </r>
       <r>   -31.4285     0.0000    12.0000 </r>
       <r>   -31.2447     0.0000    12.0000 </r>
       <r>   -31.0610     0.0000    12.0000 </r>
       <r>   -30.8772     0.0000    12.0000 </r>
       <r>   -30.6934     0.0000    12.0000 </r>
       <r>   -30.5097     0.0000    12.0000 </r>
       <r>   -30.3259     0.0000    12.0000 </r>
       <r>   -30.1421     0.0000    12.0000 </r>
       <r>   -29.9584     0.0000    12.0000 </r>
       <r>   -29.7746     0.0000    12.0000 </r>
       <r>   -29.5909     0.0000    12.0000 </r>
       <r>   -29.4071     0.0000    12.0000 </r>
       <r>   -29.2233     0.0000    12.0000 </r>
       <r>   -29.0396     0.0000    12.0000 </r>
       <r>   -28.8558     0.0000    12.0000 </r>
       <r>   -28.6720     0.0000    12.0000 </r>
       <r>   -28.4883     0.0000    12.0000 </r>
       <r>   -28.3045     0.0000    12.0000 </r>
       <r>   -28.1208     0.0000    12.0000 </r>
       <r>   -27.9370     0.0000    12.0000 </r>
       <r>   -27.7532     0.0000    12.0000 </r>
       <r>   -27.5695     0.0000    12.0000 </r>
       <r>   -27.3857     0.0000    12.0000 </r>
       <r>   -27.2019     0.0000    12.0000 </r>
       <r>   -27.0182     0.0000    12.0000 </r>
       <r>   -26.8344     0.0000    12.0000 </r>
       <r>   -26.6507     0.0000    12.0000 </r>
       <r>   -26.4669     0.0000    12.0000 </r>
       <r>   -26.2831     0.0000    12.0000 </r>
       <r>   -26.0994     0.0000    12.0000 </r>
       <r>   -25.9156     0.0000    12.0000 </r>
       <r>   -25.7318     0.0000    12.0000 </r>
       <r>   -25.5481     0.0000    12.0000 </r>
       <r>   -25.3643     0.0000    12.0000 </r>
       <r>   -25.1806     0.0000    12.0000 </r>
       <r>   -24.9968     0.0000    12.0000 </r>
       <r>   -24.8130     0.0000    12.0000 </r>
       <r>   -24.6293     0.0000    12.0000 </r>
       <r>   -24.4455     0.0000    12.0000 </r>
       <r>   -24.2617     0.0000    12.0000 </r>
       <r>   -24.0780     0.0000    12.0000 </r>
       <r>   -23.8942     0.0000    12.0000 </r>
       <r>   -23.7105     0.0000    12.0000 </r>
       <r>   -23.5267     0.0000    12.0000 </r>
       <r>   -23.3429     0.0000    12.0000 </r>
       <r>   -23.1592     0.0000    12.0000 </r>
       <r>   -22.9754     0.0000    12.0000 </r>
       <r>   -22.7916     0.0000    12.0000 </r>
       <r>   -22.6079     0.0000    12.0000 </r>
       <r>   -22.4241     0.0000    12.0000 </r>
       <r>   -22.2404     0.0000    12.0000 </r>
       <r>   -22.0566     0.0000    12.0000 </r>
       <r>   -21.8728     0.0000    12.0000 </r>
       <r>   -21.6891     0.0000    12.0000 </r>
       <r>   -21.5053     0.0000    12.0000 </r>
       <r>   -21.3216     0.0000    12.0000 </r>
       <r>   -21.1378     0.0000    12.0000 </r>
       <r>   -20.9540     0.0000    12.0000 </r>
       <r>   -20.7703     0.0000    12.0000 </r>
       <r>   -20.5865     0.0000    12.0000 </r>
       <r>   -20.4027     0.0000    12.0000 </r>
       <r>   -20.2190     0.0000    12.0000 </r>
       <r>   -20.0352     0.0000    12.0000 </r>
       <r>   -19.8515     0.0000    12.0000 </r>
       <r>   -19.6677     0.0000    12.0000 </r>
       <r>   -19.4839     0.0000    12.0000 </r>
       <r>   -19.3002     0.0000    12.0000 </r>
       <r>   -19.1164     0.0000    12.0000 </r>
       <r>   -18.9326     0.0000    12.0000 </r>
       <r>   -18.7489     0.0000    12.0000 </r>
       <r>   -18.5651     0.0000    12.0000 </r>
       <r>   -18.3814     0.0000    12.0000 </r>
       <r>   -18.1976     0.0000    12.0000 </r>
       <r>   -18.0138     0.0000    12.0000 </r>
       <r>   -17.8301     0.0000    12.0000 </r>
       <r>   -17.6463     0.0000    12.0000 </r>
       <r>   -17.4625     0.0000    12.0000 </r>
       <r>   -17.2788     0.0000    12.0000 </r>
       <r>   -17.0950     0.0000    12.0000 </r>
       <r>   -16.9113     0.0000    12.0000 </r>
       <r>   -16.7275     0.0000    12.0000 </r>
       <r>   -16.5437     0.0000    12.0000 </r>
       <r>   -16.3600     0.0000    12.0000 </r>
       <r>   -16.1762     0.0000    12.0000 </r>
       <r>   -15.9924     0.0000    12.0000 </r>
       <r>   -15.8087     0.0000    12.0000 </r>
       <r>   -15.6249     0.0000    12.0000 </r>
       <r>   -15.4412     0.0000    12.0000 </r>
       <r>   -15.2574     0.0000    12.0000 </r>
       <r>   -15.0736     0.0000    12.0000 </r>
       <r>   -14.8899     0.0000    12.0000 </r>
       <r>   -14.7061     0.0000    12.0000 </r>
       <r>   -14.5223     0.0000    12.0000 </r>
       <r>   -14.3386     0.0000    12.0000 </r>
       <r>   -14.1548     0.0000    12.0000 </r>
       <r>   -13.9711     0.0000    12.0000 </r>
       <r>   -13.7873     0.0000    12.0000 </r>
       <r>   -13.6035     0.0000    12.0000 </r>
       <r>   -13.4198     0.0000    12.0000 </r>
       <r>   -13.2360     0.0000    12.0000 </r>
       <r>   -13.0522     0.0000    12.0000 </r>
       <r>   -12.8685     0.0000    12.0000 </r>
       <r>   -12.6847     0.0000    12.0000 </r>
       <r>   -12.5010     0.0000    12.0000 </r>
       <r>   -12.3172    13.8416    13.0106 </r>
       <r>   -12.1334     0.0000    16.0000 </r>
       <r>   -11.9497     0.0000    16.0000 </r>
       <r>   -11.7659     0.0000    16.0000 </r>
       <r>   -11.5821     0.0000    16.0000 </r>
       <r>   -11.3984     0.0000    16.0000 </r>
       <r>   -11.2146     0.0000    16.0000 </r>
       <r>   -11.0309     0.0000    16.0000 </r>
       <r>   -10.8471     0.0000    16.0000 </r>
       <r>   -10.6633     0.0000    16.0000 </r>
       <r>   -10.4796     0.0000    16.0000 </r>
       <r>   -10.2958     0.0000    16.0000 </r>
       <r>   -10.1120     0.0000    16.0000 </r>
       <r>    -9.9283     0.0000    16.0000 </r>
       <r>    -9.7445     0.0000    16.0000 </r>
       <r>    -9.5608     0.0000    16.0000 </r>
       <r>    -9.3770     9.8613    19.5303 </r>
       <r>    -9.1932    20.2341    22.9741 </r>
       <r>    -9.0095    16.2364    27.0261 </r>
       <r>    -8.8257     0.0000    28.0000 </r>
       <r>    -8.6420     0.0000    28.0000 </r>
       <r>    -8.4582     0.0000    28.0000 </r>
       <r>    -8.2744     0.0000    28.0000 </r>
       <r>    -8.0907     0.0000    28.0000 </r>
       <r>    -7.9069     0.0000    28.0000 </r>
       <r>    -7.7231     0.0000    28.0000 </r>
       <r>    -7.5394     0.0000    28.0000 </r>
       <r>    -7.3556     0.0000    28.0000 </r>
       <r>    -7.1719     0.0000    28.0000 </r>
       <r>    -6.9881     0.0000    28.0000 </r>
       <r>    -6.8043     0.0000    28.0000 </r>
       <r>    -6.6206     0.0000    28.0000 </r>
       <r>    -6.4368     0.0000    28.0000 </r>
       <r>    -6.2530     0.0000    28.0000 </r>
       <r>    -6.0693     0.0000    28.0000 </r>
       <r>    -5.8855     0.0000    28.0000 </r>
       <r>    -5.7018     0.0000    28.0000 </r>
       <r>    -5.5180     0.0000    28.0000 </r>
       <r>    -5.3342     1.6514    28.1305 </r>
       <r>    -5.1505     4.7547    28.7643 </r>
       <r>    -4.9667     7.6968    29.7944 </r>
       <r>    -4.7829     9.9606    31.6732 </r>
       <r>    -4.5992     0.0000    32.0000 </r>
       <r>    -4.4154     0.0000    32.0000 </r>
       <r>    -4.2317     0.0000    32.0000 </r>
       <r>    -4.0479     0.0000    32.0000 </r>
       <r>    -3.8641     0.0000    32.0000 </r>
       <r>    -3.6804     0.0000    32.0000 </r>
       <r>    -3.4966     0.0000    32.0000 </r>
       <r>    -3.3128     0.0000    32.0000 </r>
       <r>    -3.1291     0.0000    32.0000 </r>
       <r>    -2.9453     0.0000    32.0000 </r>
       <r>    -2.7616     0.0000    32.0000 </r>
       <r>    -2.5778     0.0000    32.0000 </r>
       <r>    -2.3940     8.5345    33.0825 </r>
       <r>    -2.2103    18.1276    35.8431 </r>
       <r>    -2.0265    21.2038    39.0725 </r>
       <r>    -1.8427    18.2280    41.2473 </r>
       <r>    -1.6590     2.5483    43.9437 </r>
       <r>    -1.4752     0.0000    44.0000 </r>
       <r>    -1.2915     0.0000    44.0000 </r>
       <r>    -1.1077     0.0000    44.0000 </r>
       <r>    -0.9239     0.0000    44.0000 </r>
       <r>    -0.7402     0.0000    44.0000 </r>
       <r>    -0.5564     0.0000    44.0000 </r>
       <r>    -0.3726     0.0000    44.0000 </r>
       <r>    -0.1889     0.0000    44.0000 </r>
       <r>    -0.0051    13.5426    45.8831 </r>
       <r>     0.1786     6.8986    48.0954 </r>
       <r>     0.3624    13.6123    50.0827 </r>
       <r>     0.5462     9.0522    52.3008 </r>
       <r>     0.7299     8.8245    54.8246 </r>
       <r>     0.9137     3.2430    55.9321 </r>
       <r>     1.0975    12.9758    58.1090 </r>
       <r>     1.2812     7.9999    60.0798 </r>
       <r>     1.4650    16.4309    61.3405 </r>
       <r>     1.6487     5.1807    63.8858 </r>
       <r>     1.8325     3.1782    66.1520 </r>
       <r>     2.0163     7.6575    68.1991 </r>
       <r>     2.2000    11.2118    70.3661 </r>
       <r>     2.3838     0.0000    72.0000 </r>
       <r>     2.5676    12.0677    74.5437 </r>
       <r>     2.7513     0.0000    76.0000 </r>
       <r>     2.9351     0.0000    76.0000 </r>
       <r>     3.1188     0.0000    76.0000 </r>
       <r>     3.3026     0.0000    76.0000 </r>
       <r>     3.4864     0.0000    76.0000 </r>
       <r>     3.6701     0.0000    76.0000 </r>
       <r>     3.8539     0.0000    76.0000 </r>
       <r>     4.0376     0.0000    76.0000 </r>
       <r>     4.2214     0.0000    76.0000 </r>
       <r>     4.4052     0.0000    76.0000 </r>
       <r>     4.5889     0.0000    76.0000 </r>
       <r>     4.7727     0.0000    76.0000 </r>
       <r>     4.9565     0.0000    76.0000 </r>
       <r>     5.1402     0.0000    76.0000 </r>
       <r>     5.3240     0.0000    76.0000 </r>
       <r>     5.5077     2.3417    76.2091 </r>
       <r>     5.6915     4.8118    77.1080 </r>
       <r>     5.8753     9.6232    78.3766 </r>
       <r>     6.0590     4.1259    79.3193 </r>
       <r>     6.2428     0.0000    80.0000 </r>
       <r>     6.4266     0.0000    80.0000 </r>
       <r>     6.6103    17.6219    81.4952 </r>
       <r>     6.7941     6.5812    83.9033 </r>
       <r>     6.9778     7.7910    84.8308 </r>
       <r>     7.1616    14.3596    87.2569 </r>
       <r>     7.3454    10.0396    89.2138 </r>
       <r>     7.5291    12.9203    91.5409 </r>
       <r>     7.7129     0.0000    92.0000 </r>
       <r>     7.8967     0.0000    92.0000 </r>
       <r>     8.0804     0.0000    92.0000 </r>
       <r>     8.2642     1.9319    92.2049 </r>
       <r>     8.4479     5.5799    92.9254 </r>
       <r>     8.6317    18.0233    94.6696 </r>
       <r>     8.8155     0.0000    96.0000 </r>
       <r>     8.9992     0.0000    96.0000 </r>
       <r>     9.1830     0.0000    96.0000 </r>
       <r>     9.3668     0.0000    96.0000 </r>
       <r>     9.5505     0.0000    96.0000 </r>
       <r>     9.7343     0.0000    96.0000 </r>
       <r>     9.9180     0.0000    96.0000 </r>
       <r>    10.1018     0.0000    96.0000 </r>
       <r>    10.2856     0.0000    96.0000 </r>
       <r>    10.4693     0.0000    96.0000 </r>
       <r>    10.6531     0.0000    96.0000 </r>
       <r>    10.8369     0.0000    96.0000 </r>
       <r>    11.0206     0.0000    96.0000 </r>
       <r>    11.2044     0.0000    96.0000 </r>
      </set>
     </set>
    </array>
   </total>
  </dos>
 </calculation>
 <structure name="finalpos" >
  <crystal>
   <varray name="basis" >
    <v>       7.77243245       0.00000000       0.00000000 </v>
    <v>       0.00000000       6.13222179       0.00000000 </v>
    <v>       0.00000000       0.00000000       5.93628387 </v>
   </varray>
   <i name="volume">    282.93682210 </i>
   <varray name="rec_basis" >
    <v>       0.12865985       0.00000000       0.00000000 </v>
    <v>       0.00000000       0.16307303       0.00000000 </v>
    <v>       0.00000000       0.00000000       0.16845556 </v>
   </varray>
  </crystal>
  <varray name="positions" >
   <v>       0.00000000       0.77183767       0.44038383 </v>
   <v>       0.50000000       0.22816233       0.94038383 </v>
   <v>       0.20874108       0.60513832       0.55901547 </v>
   <v>       0.29125892       0.39486168       0.05901547 </v>
   <v>       0.70874108       0.39486168       0.05901547 </v>
   <v>       0.79125892       0.60513832       0.55901547 </v>
   <v>       0.00000000       0.80928159       0.10007882 </v>
   <v>       0.50000000       0.19071841       0.60007882 </v>
   <v>       0.00000000       0.06852503       0.59185314 </v>
   <v>       0.50000000       0.93147497       0.09185314 </v>
   <v>       0.00000000       0.43270094       0.85180546 </v>
   <v>       0.50000000       0.56729906       0.35180546 </v>
   <v>       0.26696291       0.76865349       0.91249506 </v>
   <v>       0.23303709       0.23134651       0.41249506 </v>
   <v>       0.76696291       0.23134651       0.41249506 </v>
   <v>       0.73303709       0.76865349       0.91249506 </v>
  </varray>
 </structure>
</modeling>
