unknown system                          
           1
     7.816896    0.000000    0.000000
     0.000000    6.122255    0.000000
     0.000000    0.000000    5.936551
   P    S    Li
   2   8   6
Direct configuration=     1
   0.00000000  0.77210351  0.43962069
   0.50000000  0.22789649  0.93962069
   0.20785343  0.60291622  0.55348283
   0.29214657  0.39708378  0.05348283
   0.70785343  0.39708378  0.05348283
   0.79214657  0.60291622  0.55348283
   0.00000000  0.81445933  0.10055016
   0.50000000  0.18554067  0.60055016
   0.00000000  0.06680310  0.59590400
   0.50000000  0.93319690  0.09590400
   0.00000000  0.42684406  0.85487146
   0.50000000  0.57315594  0.35487146
   0.26584918  0.76535326  0.91461516
   0.23415082  0.23464674  0.41461516
   0.76584918  0.23464674  0.41461516
   0.73415082  0.76535326  0.91461516
unknown system                          
           1
     7.794483    0.000000    0.000000
     0.000000    6.121337    0.000000
     0.000000    0.000000    5.935926
   P    S    Li
   2   8   6
Direct configuration=     2
   0.00000000  0.77178809  0.43944484
   0.50000000  0.22821191  0.93944484
   0.20782241  0.60376586  0.55496316
   0.29217759  0.39623414  0.05496316
   0.70782241  0.39623414  0.05496316
   0.79217759  0.60376586  0.55496316
   0.00000000  0.81433195  0.09982841
   0.50000000  0.18566805  0.59982841
   0.00000000  0.06698553  0.59512261
   0.50000000  0.93301447  0.09512261
   0.00000000  0.42717152  0.85451700
   0.50000000  0.57282848  0.35451700
   0.26613642  0.76592915  0.91415156
   0.23386358  0.23407085  0.41415156
   0.76613642  0.23407085  0.41415156
   0.73386358  0.76592915  0.91415156
unknown system                          
           1
     7.763212    0.000000    0.000000
     0.000000    6.120055    0.000000
     0.000000    0.000000    5.935053
   P    S    Li
   2   8   6
Direct configuration=     3
   0.00000000  0.77134794  0.43919947
   0.50000000  0.22865206  0.93919947
   0.20777901  0.60495144  0.55702874
   0.29222099  0.39504856  0.05702874
   0.70777901  0.39504856  0.05702874
   0.79222099  0.60495144  0.55702874
   0.00000000  0.81415419  0.09882131
   0.50000000  0.18584581  0.59882131
   0.00000000  0.06724010  0.59403229
   0.50000000  0.93275990  0.09403229
   0.00000000  0.42762846  0.85402239
   0.50000000  0.57237154  0.35402239
   0.26653832  0.76673276  0.91350468
   0.23346168  0.23326724  0.41350468
   0.76653832  0.23326724  0.41350468
   0.73346168  0.76673276  0.91350468
unknown system                          
           1
     7.759947    0.000000    0.000000
     0.000000    6.123868    0.000000
     0.000000    0.000000    5.932037
   P    S    Li
   2   8   6
Direct configuration=     4
   0.00000000  0.77185921  0.43862954
   0.50000000  0.22814079  0.93862954
   0.20823273  0.60518376  0.55819319
   0.29176727  0.39481624  0.05819319
   0.70823273  0.39481624  0.05819319
   0.79176727  0.60518376  0.55819319
   0.00000000  0.81389745  0.09872173
   0.50000000  0.18610255  0.59872173
   0.00000000  0.06748739  0.59336433
   0.50000000  0.93251261  0.09336433
   0.00000000  0.42796012  0.85372577
   0.50000000  0.57203988  0.35372577
   0.26680013  0.76721862  0.91315728
   0.23319987  0.23278138  0.41315728
   0.76680013  0.23278138  0.41315728
   0.73319987  0.76721862  0.91315728
unknown system                          
           1
     7.758238    0.000000    0.000000
     0.000000    6.125863    0.000000
     0.000000    0.000000    5.930459
   P    S    Li
   2   8   6
Direct configuration=     5
   0.00000000  0.77212650  0.43833123
   0.50000000  0.22787350  0.93833123
   0.20847018  0.60530521  0.55880266
   0.29152982  0.39469479  0.05880266
   0.70847018  0.39469479  0.05880266
   0.79152982  0.60530521  0.55880266
   0.00000000  0.81376322  0.09866961
   0.50000000  0.18623678  0.59866961
   0.00000000  0.06761668  0.59301473
   0.50000000  0.93238332  0.09301473
   0.00000000  0.42813352  0.85357053
   0.50000000  0.57186648  0.35357053
   0.26693716  0.76747264  0.91297544
   0.23306284  0.23252736  0.41297544
   0.76693716  0.23252736  0.41297544
   0.73306284  0.76747264  0.91297544
unknown system                          
           1
     7.762147    0.000000    0.000000
     0.000000    6.128051    0.000000
     0.000000    0.000000    5.930420
   P    S    Li
   2   8   6
Direct configuration=     6
   0.00000000  0.77223092  0.43861251
   0.50000000  0.22776908  0.93861251
   0.20855051  0.60514833  0.55857883
   0.29144949  0.39485167  0.05857883
   0.70855051  0.39485167  0.05857883
   0.79144949  0.60514833  0.55857883
   0.00000000  0.81360308  0.09883397
   0.50000000  0.18639692  0.59883397
   0.00000000  0.06776288  0.59298600
   0.50000000  0.93223712  0.09298600
   0.00000000  0.42825272  0.85352983
   0.50000000  0.57174728  0.35352983
   0.26695727  0.76748339  0.91301116
   0.23304273  0.23251661  0.41301116
   0.76695727  0.23251661  0.41301116
   0.73304273  0.76748339  0.91301116
unknown system                          
           1
     7.773621    0.000000    0.000000
     0.000000    6.134473    0.000000
     0.000000    0.000000    5.930308
   P    S    Li
   2   8   6
Direct configuration=     7
   0.00000000  0.77253737  0.43943828
   0.50000000  0.22746263  0.93943828
   0.20878623  0.60468796  0.55792174
   0.29121377  0.39531204  0.05792174
   0.70878623  0.39531204  0.05792174
   0.79121377  0.60468796  0.55792174
   0.00000000  0.81313311  0.09931647
   0.50000000  0.18686689  0.59931647
   0.00000000  0.06819194  0.59290167
   0.50000000  0.93180806  0.09290167
   0.00000000  0.42860252  0.85341036
   0.50000000  0.57139748  0.35341036
   0.26701628  0.76751493  0.91311602
   0.23298372  0.23248507  0.41311602
   0.76701628  0.23248507  0.41311602
   0.73298372  0.76751493  0.91311602
unknown system                          
           1
     7.770345    0.000000    0.000000
     0.000000    6.132640    0.000000
     0.000000    0.000000    5.930340
   P    S    Li
   2   8   6
Direct configuration=     8
   0.00000000  0.77244996  0.43920250
   0.50000000  0.22755004  0.93920250
   0.20871902  0.60481927  0.55810936
   0.29128098  0.39518073  0.05810936
   0.70871902  0.39518073  0.05810936
   0.79128098  0.60481927  0.55810936
   0.00000000  0.81326716  0.09917870
   0.50000000  0.18673284  0.59917870
   0.00000000  0.06806956  0.59292575
   0.50000000  0.93193044  0.09292575
   0.00000000  0.42850275  0.85344447
   0.50000000  0.57149725  0.35344447
   0.26699945  0.76750594  0.91308608
   0.23300055  0.23249406  0.41308608
   0.76699945  0.23249406  0.41308608
   0.73300055  0.76750594  0.91308608
unknown system                          
           1
     7.768704    0.000000    0.000000
     0.000000    6.132295    0.000000
     0.000000    0.000000    5.929542
   P    S    Li
   2   8   6
Direct configuration=     9
   0.00000000  0.77236133  0.43954972
   0.50000000  0.22763867  0.93954972
   0.20865876  0.60483315  0.55792915
   0.29134124  0.39516685  0.05792915
   0.70865876  0.39516685  0.05792915
   0.79134124  0.60483315  0.55792915
   0.00000000  0.81293105  0.09945110
   0.50000000  0.18706895  0.59945110
   0.00000000  0.06821694  0.59283574
   0.50000000  0.93178306  0.09283574
   0.00000000  0.42880116  0.85331707
   0.50000000  0.57119884  0.35331707
   0.26703228  0.76757287  0.91306519
   0.23296772  0.23242713  0.41306519
   0.76703228  0.23242713  0.41306519
   0.73296772  0.76757287  0.91306519
unknown system                          
           1
     7.766214    0.000000    0.000000
     0.000000    6.131771    0.000000
     0.000000    0.000000    5.928330
   P    S    Li
   2   8   6
Direct configuration=    10
   0.00000000  0.77222684  0.44007667
   0.50000000  0.22777316  0.94007667
   0.20856730  0.60485422  0.55765567
   0.29143270  0.39514578  0.05765567
   0.70856730  0.39514578  0.05765567
   0.79143270  0.60485422  0.55765567
   0.00000000  0.81242101  0.09986449
   0.50000000  0.18757899  0.59986449
   0.00000000  0.06844060  0.59269915
   0.50000000  0.93155940  0.09269915
   0.00000000  0.42925399  0.85312371
   0.50000000  0.57074601  0.35312371
   0.26708211  0.76767444  0.91303348
   0.23291789  0.23232556  0.41303348
   0.76708211  0.23232556  0.41303348
   0.73291789  0.76767444  0.91303348
unknown system                          
           1
     7.770827    0.000000    0.000000
     0.000000    6.132202    0.000000
     0.000000    0.000000    5.931057
   P    S    Li
   2   8   6
Direct configuration=    11
   0.00000000  0.77240460  0.43969482
   0.50000000  0.22759540  0.93969482
   0.20873685  0.60484259  0.55798593
   0.29126315  0.39515741  0.05798593
   0.70873685  0.39515741  0.05798593
   0.79126315  0.60484259  0.55798593
   0.00000000  0.81219060  0.09985410
   0.50000000  0.18780940  0.59985410
   0.00000000  0.06843483  0.59274475
   0.50000000  0.93156517  0.09274475
   0.00000000  0.42948600  0.85302078
   0.50000000  0.57051400  0.35302078
   0.26705388  0.76774510  0.91292800
   0.23294612  0.23225490  0.41292800
   0.76705388  0.23225490  0.41292800
   0.73294612  0.76774510  0.91292800
unknown system                          
           1
     7.771041    0.000000    0.000000
     0.000000    6.132222    0.000000
     0.000000    0.000000    5.931183
   P    S    Li
   2   8   6
Direct configuration=    12
   0.00000000  0.77241281  0.43967719
   0.50000000  0.22758719  0.93967719
   0.20874468  0.60484205  0.55800118
   0.29125532  0.39515795  0.05800118
   0.70874468  0.39515795  0.05800118
   0.79125532  0.60484205  0.55800118
   0.00000000  0.81217996  0.09985362
   0.50000000  0.18782004  0.59985362
   0.00000000  0.06843456  0.59274685
   0.50000000  0.93156544  0.09274685
   0.00000000  0.42949672  0.85301603
   0.50000000  0.57050328  0.35301603
   0.26705257  0.76774836  0.91292313
   0.23294743  0.23225164  0.41292313
   0.76705257  0.23225164  0.41292313
   0.73294743  0.76774836  0.91292313
unknown system                          
           1
     7.769739    0.000000    0.000000
     0.000000    6.130479    0.000000
     0.000000    0.000000    5.933989
   P    S    Li
   2   8   6
Direct configuration=    13
   0.00000000  0.77232125  0.43965342
   0.50000000  0.22767875  0.93965342
   0.20871942  0.60498941  0.55826500
   0.29128058  0.39501059  0.05826500
   0.70871942  0.39501059  0.05826500
   0.79128058  0.60498941  0.55826500
   0.00000000  0.81188044  0.09976273
   0.50000000  0.18811956  0.59976273
   0.00000000  0.06837060  0.59271026
   0.50000000  0.93162940  0.09271026
   0.00000000  0.42982849  0.85286875
   0.50000000  0.57017151  0.35286875
   0.26702844  0.76783978  0.91280857
   0.23297156  0.23216022  0.41280857
   0.76702844  0.23216022  0.41280857
   0.73297156  0.76783978  0.91280857
unknown system                          
           1
     7.768162    0.000000    0.000000
     0.000000    6.128366    0.000000
     0.000000    0.000000    5.937389
   P    S    Li
   2   8   6
Direct configuration=    14
   0.00000000  0.77221029  0.43962464
   0.50000000  0.22778971  0.93962464
   0.20868881  0.60516801  0.55858451
   0.29131119  0.39483199  0.05858451
   0.70868881  0.39483199  0.05858451
   0.79131119  0.60516801  0.55858451
   0.00000000  0.81151744  0.09965266
   0.50000000  0.18848256  0.59965266
   0.00000000  0.06829308  0.59266594
   0.50000000  0.93170692  0.09266594
   0.00000000  0.43023059  0.85269038
   0.50000000  0.56976941  0.35269038
   0.26699920  0.76795058  0.91266983
   0.23300080  0.23204942  0.41266983
   0.76699920  0.23204942  0.41266983
   0.73300080  0.76795058  0.91266983
unknown system                          
           1
     7.767149    0.000000    0.000000
     0.000000    6.127578    0.000000
     0.000000    0.000000    5.935791
   P    S    Li
   2   8   6
Direct configuration=    15
   0.00000000  0.77214052  0.43960756
   0.50000000  0.22785948  0.93960756
   0.20868521  0.60523653  0.55874744
   0.29131479  0.39476347  0.05874744
   0.70868521  0.39476347  0.05874744
   0.79131479  0.60523653  0.55874744
   0.00000000  0.81105136  0.09988130
   0.50000000  0.18894864  0.59988130
   0.00000000  0.06830262  0.59249155
   0.50000000  0.93169738  0.09249155
   0.00000000  0.43072935  0.85248989
   0.50000000  0.56927065  0.35248989
   0.26699542  0.76809250  0.91258856
   0.23300458  0.23190750  0.41258856
   0.76699542  0.23190750  0.41258856
   0.73300458  0.76809250  0.91258856
unknown system                          
           1
     7.766123    0.000000    0.000000
     0.000000    6.126780    0.000000
     0.000000    0.000000    5.934175
   P    S    Li
   2   8   6
Direct configuration=    16
   0.00000000  0.77206990  0.43959027
   0.50000000  0.22793010  0.93959027
   0.20868157  0.60530587  0.55891234
   0.29131843  0.39469413  0.05891234
   0.70868157  0.39469413  0.05891234
   0.79131843  0.60530587  0.55891234
   0.00000000  0.81057970  0.10011271
   0.50000000  0.18942030  0.60011271
   0.00000000  0.06831228  0.59231504
   0.50000000  0.93168772  0.09231504
   0.00000000  0.43123408  0.85228698
   0.50000000  0.56876592  0.35228698
   0.26699158  0.76823612  0.91250631
   0.23300842  0.23176388  0.41250631
   0.76699158  0.23176388  0.41250631
   0.73300842  0.76823612  0.91250631
unknown system                          
           1
     7.766987    0.000000    0.000000
     0.000000    6.127764    0.000000
     0.000000    0.000000    5.934068
   P    S    Li
   2   8   6
Direct configuration=    17
   0.00000000  0.77202182  0.43973356
   0.50000000  0.22797818  0.93973356
   0.20871629  0.60528145  0.55897559
   0.29128371  0.39471855  0.05897559
   0.70871629  0.39471855  0.05897559
   0.79128371  0.60528145  0.55897559
   0.00000000  0.81024981  0.10015711
   0.50000000  0.18975019  0.60015711
   0.00000000  0.06839102  0.59219297
   0.50000000  0.93160898  0.09219297
   0.00000000  0.43160167  0.85214971
   0.50000000  0.56839833  0.35214971
   0.26699179  0.76834374  0.91247888
   0.23300821  0.23165626  0.41247888
   0.76699179  0.23165626  0.41247888
   0.73300821  0.76834374  0.91247888
unknown system                          
           1
     7.769580    0.000000    0.000000
     0.000000    6.130717    0.000000
     0.000000    0.000000    5.933748
   P    S    Li
   2   8   6
Direct configuration=    18
   0.00000000  0.77187759  0.44016344
   0.50000000  0.22812241  0.94016344
   0.20882045  0.60520820  0.55916535
   0.29117955  0.39479180  0.05916535
   0.70882045  0.39479180  0.05916535
   0.79117955  0.60520820  0.55916535
   0.00000000  0.80926028  0.10029031
   0.50000000  0.19073972  0.60029031
   0.00000000  0.06862720  0.59182676
   0.50000000  0.93137280  0.09182676
   0.00000000  0.43270426  0.85173789
   0.50000000  0.56729574  0.35173789
   0.26699241  0.76866655  0.91239660
   0.23300759  0.23133345  0.41239660
   0.76699241  0.23133345  0.41239660
   0.73300759  0.76866655  0.91239660
unknown system                          
           1
     7.770998    0.000000    0.000000
     0.000000    6.131465    0.000000
     0.000000    0.000000    5.935008
   P    S    Li
   2   8   6
Direct configuration=    19
   0.00000000  0.77185775  0.44027298
   0.50000000  0.22814225  0.94027298
   0.20878100  0.60517347  0.55909086
   0.29121900  0.39482653  0.05909086
   0.70878100  0.39482653  0.05909086
   0.79121900  0.60517347  0.55909086
   0.00000000  0.80927087  0.10018519
   0.50000000  0.19072913  0.60018519
   0.00000000  0.06857642  0.59183987
   0.50000000  0.93142358  0.09183987
   0.00000000  0.43270261  0.85177147
   0.50000000  0.56729739  0.35177147
   0.26697775  0.76866006  0.91244554
   0.23302225  0.23133994  0.41244554
   0.76697775  0.23133994  0.41244554
   0.73302225  0.76866006  0.91244554
unknown system                          
           1
     7.772432    0.000000    0.000000
     0.000000    6.132222    0.000000
     0.000000    0.000000    5.936284
   P    S    Li
   2   8   6
Direct configuration=    20
   0.00000000  0.77183767  0.44038383
   0.50000000  0.22816233  0.94038383
   0.20874108  0.60513832  0.55901547
   0.29125892  0.39486168  0.05901547
   0.70874108  0.39486168  0.05901547
   0.79125892  0.60513832  0.55901547
   0.00000000  0.80928159  0.10007882
   0.50000000  0.19071841  0.60007882
   0.00000000  0.06852503  0.59185314
   0.50000000  0.93147497  0.09185314
   0.00000000  0.43270094  0.85180546
   0.50000000  0.56729906  0.35180546
   0.26696291  0.76865349  0.91249506
   0.23303709  0.23134651  0.41249506
   0.76696291  0.23134651  0.41249506
   0.73303709  0.76865349  0.91249506
