  16  16   0   0
  0.1770977E+02  0.7790875E-09  0.6132408E-09  0.5930832E-09  0.5000000E-15
  1.000000000000000E-004
  CAR 
 unknown system                          
     11.22561564    -43.88050747  301      2.82193186      1.00000000
    -43.881  0.0000E+00  0.0000E+00
    -43.697  0.0000E+00  0.0000E+00
    -43.513  0.0000E+00  0.0000E+00
    -43.329  0.0000E+00  0.0000E+00
    -43.146  0.0000E+00  0.0000E+00
    -42.962  0.0000E+00  0.0000E+00
    -42.778  0.0000E+00  0.0000E+00
    -42.595  0.0000E+00  0.0000E+00
    -42.411  0.0000E+00  0.0000E+00
    -42.227  0.0000E+00  0.0000E+00
    -42.044  0.0000E+00  0.0000E+00
    -41.860  0.0000E+00  0.0000E+00
    -41.676  0.0000E+00  0.0000E+00
    -41.493  0.0000E+00  0.0000E+00
    -41.309  0.0000E+00  0.4000E-01
    -41.125  0.0000E+00  0.4000E-01
    -40.942  0.0000E+00  0.4000E-01
    -40.758  0.0000E+00  0.4000E-01
    -40.574  0.0000E+00  0.1200E+00
    -40.390  0.0000E+00  0.1200E+00
    -40.207  0.0000E+00  0.1200E+00
    -40.023  0.0000E+00  0.1200E+00
    -39.839  0.0000E+00  0.1200E+00
    -39.656  0.0000E+00  0.1200E+00
    -39.472  0.0000E+00  0.1200E+00
    -39.288  0.0000E+00  0.1200E+00
    -39.105  0.0000E+00  0.1200E+00
    -38.921  0.0000E+00  0.1200E+00
    -38.737  0.0000E+00  0.1200E+00
    -38.554  0.0000E+00  0.1200E+00
    -38.370  0.0000E+00  0.1200E+00
    -38.186  0.0000E+00  0.1200E+00
    -38.003  0.0000E+00  0.1200E+00
    -37.819  0.0000E+00  0.1200E+00
    -37.635  0.0000E+00  0.1200E+00
    -37.451  0.0000E+00  0.1200E+00
    -37.268  0.0000E+00  0.1200E+00
    -37.084  0.0000E+00  0.1200E+00
    -36.900  0.0000E+00  0.1200E+00
    -36.717  0.0000E+00  0.1200E+00
    -36.533  0.0000E+00  0.1200E+00
    -36.349  0.0000E+00  0.1200E+00
    -36.166  0.0000E+00  0.1200E+00
    -35.982  0.0000E+00  0.1200E+00
    -35.798  0.0000E+00  0.1200E+00
    -35.615  0.0000E+00  0.1200E+00
    -35.431  0.0000E+00  0.1200E+00
    -35.247  0.0000E+00  0.1200E+00
    -35.064  0.0000E+00  0.1200E+00
    -34.880  0.0000E+00  0.1200E+00
    -34.696  0.0000E+00  0.1200E+00
    -34.512  0.0000E+00  0.1200E+00
    -34.329  0.0000E+00  0.1200E+00
    -34.145  0.0000E+00  0.1200E+00
    -33.961  0.0000E+00  0.1200E+00
    -33.778  0.0000E+00  0.1200E+00
    -33.594  0.0000E+00  0.1200E+00
    -33.410  0.0000E+00  0.1200E+00
    -33.227  0.0000E+00  0.1200E+00
    -33.043  0.0000E+00  0.1200E+00
    -32.859  0.0000E+00  0.1200E+00
    -32.676  0.0000E+00  0.1200E+00
    -32.492  0.0000E+00  0.1200E+00
    -32.308  0.0000E+00  0.1200E+00
    -32.125  0.0000E+00  0.1200E+00
    -31.941  0.0000E+00  0.1200E+00
    -31.757  0.0000E+00  0.1200E+00
    -31.573  0.0000E+00  0.1200E+00
    -31.390  0.0000E+00  0.1200E+00
    -31.206  0.0000E+00  0.1200E+00
    -31.022  0.0000E+00  0.1200E+00
    -30.839  0.0000E+00  0.1200E+00
    -30.655  0.0000E+00  0.1200E+00
    -30.471  0.0000E+00  0.1200E+00
    -30.288  0.0000E+00  0.1200E+00
    -30.104  0.0000E+00  0.1200E+00
    -29.920  0.0000E+00  0.1200E+00
    -29.737  0.0000E+00  0.1200E+00
    -29.553  0.0000E+00  0.1200E+00
    -29.369  0.0000E+00  0.1200E+00
    -29.186  0.0000E+00  0.1200E+00
    -29.002  0.0000E+00  0.1200E+00
    -28.818  0.0000E+00  0.1200E+00
    -28.634  0.0000E+00  0.1200E+00
    -28.451  0.0000E+00  0.1200E+00
    -28.267  0.0000E+00  0.1200E+00
    -28.083  0.0000E+00  0.1200E+00
    -27.900  0.0000E+00  0.1200E+00
    -27.716  0.0000E+00  0.1200E+00
    -27.532  0.0000E+00  0.1200E+00
    -27.349  0.0000E+00  0.1200E+00
    -27.165  0.0000E+00  0.1200E+00
    -26.981  0.0000E+00  0.1200E+00
    -26.798  0.0000E+00  0.1200E+00
    -26.614  0.0000E+00  0.1200E+00
    -26.430  0.0000E+00  0.1200E+00
    -26.247  0.0000E+00  0.1200E+00
    -26.063  0.0000E+00  0.1200E+00
    -25.879  0.0000E+00  0.1200E+00
    -25.695  0.0000E+00  0.1200E+00
    -25.512  0.0000E+00  0.1200E+00
    -25.328  0.0000E+00  0.1200E+00
    -25.144  0.0000E+00  0.1200E+00
    -24.961  0.0000E+00  0.1200E+00
    -24.777  0.0000E+00  0.1200E+00
    -24.593  0.0000E+00  0.1200E+00
    -24.410  0.0000E+00  0.1200E+00
    -24.226  0.0000E+00  0.1200E+00
    -24.042  0.0000E+00  0.1200E+00
    -23.859  0.0000E+00  0.1200E+00
    -23.675  0.0000E+00  0.1200E+00
    -23.491  0.0000E+00  0.1200E+00
    -23.308  0.0000E+00  0.1200E+00
    -23.124  0.0000E+00  0.1200E+00
    -22.940  0.0000E+00  0.1200E+00
    -22.756  0.0000E+00  0.1200E+00
    -22.573  0.0000E+00  0.1200E+00
    -22.389  0.0000E+00  0.1200E+00
    -22.205  0.0000E+00  0.1200E+00
    -22.022  0.0000E+00  0.1200E+00
    -21.838  0.0000E+00  0.1200E+00
    -21.654  0.0000E+00  0.1200E+00
    -21.471  0.0000E+00  0.1200E+00
    -21.287  0.0000E+00  0.1200E+00
    -21.103  0.0000E+00  0.1200E+00
    -20.920  0.0000E+00  0.1200E+00
    -20.736  0.0000E+00  0.1200E+00
    -20.552  0.0000E+00  0.1200E+00
    -20.369  0.0000E+00  0.1200E+00
    -20.185  0.0000E+00  0.1200E+00
    -20.001  0.0000E+00  0.1200E+00
    -19.818  0.0000E+00  0.1200E+00
    -19.634  0.0000E+00  0.1200E+00
    -19.450  0.0000E+00  0.1200E+00
    -19.266  0.0000E+00  0.1200E+00
    -19.083  0.0000E+00  0.1200E+00
    -18.899  0.0000E+00  0.1200E+00
    -18.715  0.0000E+00  0.1200E+00
    -18.532  0.0000E+00  0.1200E+00
    -18.348  0.0000E+00  0.1200E+00
    -18.164  0.0000E+00  0.1200E+00
    -17.981  0.0000E+00  0.1200E+00
    -17.797  0.0000E+00  0.1200E+00
    -17.613  0.0000E+00  0.1200E+00
    -17.430  0.0000E+00  0.1200E+00
    -17.246  0.0000E+00  0.1200E+00
    -17.062  0.0000E+00  0.1200E+00
    -16.879  0.0000E+00  0.1200E+00
    -16.695  0.0000E+00  0.1200E+00
    -16.511  0.0000E+00  0.1200E+00
    -16.327  0.0000E+00  0.1200E+00
    -16.144  0.0000E+00  0.1200E+00
    -15.960  0.0000E+00  0.1200E+00
    -15.776  0.0000E+00  0.1200E+00
    -15.593  0.0000E+00  0.1200E+00
    -15.409  0.0000E+00  0.1200E+00
    -15.225  0.0000E+00  0.1200E+00
    -15.042  0.0000E+00  0.1200E+00
    -14.858  0.0000E+00  0.1200E+00
    -14.674  0.0000E+00  0.1200E+00
    -14.491  0.0000E+00  0.1200E+00
    -14.307  0.0000E+00  0.1200E+00
    -14.123  0.0000E+00  0.1200E+00
    -13.940  0.0000E+00  0.1200E+00
    -13.756  0.0000E+00  0.1200E+00
    -13.572  0.0000E+00  0.1200E+00
    -13.388  0.0000E+00  0.1200E+00
    -13.205  0.0000E+00  0.1200E+00
    -13.021  0.0000E+00  0.1200E+00
    -12.837  0.0000E+00  0.1200E+00
    -12.654  0.0000E+00  0.1200E+00
    -12.470  0.0000E+00  0.1200E+00
    -12.286  0.1732E+00  0.1311E+00
    -12.103  0.0000E+00  0.1600E+00
    -11.919  0.0000E+00  0.1600E+00
    -11.735  0.0000E+00  0.1600E+00
    -11.552  0.0000E+00  0.1600E+00
    -11.368  0.0000E+00  0.1600E+00
    -11.184  0.0000E+00  0.1600E+00
    -11.001  0.0000E+00  0.1600E+00
    -10.817  0.0000E+00  0.1600E+00
    -10.633  0.0000E+00  0.1600E+00
    -10.449  0.0000E+00  0.1600E+00
    -10.266  0.0000E+00  0.1600E+00
    -10.082  0.0000E+00  0.1600E+00
     -9.898  0.0000E+00  0.1600E+00
     -9.715  0.0000E+00  0.1600E+00
     -9.531  0.0000E+00  0.1600E+00
     -9.347  0.9658E-01  0.1961E+00
     -9.164  0.1826E+00  0.2307E+00
     -8.980  0.1878E+00  0.2694E+00
     -8.796  0.0000E+00  0.2800E+00
     -8.613  0.0000E+00  0.2800E+00
     -8.429  0.0000E+00  0.2800E+00
     -8.245  0.0000E+00  0.2800E+00
     -8.062  0.0000E+00  0.2800E+00
     -7.878  0.0000E+00  0.2800E+00
     -7.694  0.0000E+00  0.2800E+00
     -7.510  0.0000E+00  0.2800E+00
     -7.327  0.0000E+00  0.2800E+00
     -7.143  0.0000E+00  0.2800E+00
     -6.959  0.0000E+00  0.2800E+00
     -6.776  0.0000E+00  0.2800E+00
     -6.592  0.0000E+00  0.2800E+00
     -6.408  0.0000E+00  0.2800E+00
     -6.225  0.0000E+00  0.2800E+00
     -6.041  0.0000E+00  0.2800E+00
     -5.857  0.0000E+00  0.2800E+00
     -5.674  0.0000E+00  0.2800E+00
     -5.490  0.0000E+00  0.2800E+00
     -5.306  0.1621E-01  0.2813E+00
     -5.123  0.4636E-01  0.2875E+00
     -4.939  0.7024E-01  0.2977E+00
     -4.755  0.1063E+00  0.3168E+00
     -4.571  0.0000E+00  0.3200E+00
     -4.388  0.0000E+00  0.3200E+00
     -4.204  0.0000E+00  0.3200E+00
     -4.020  0.0000E+00  0.3200E+00
     -3.837  0.0000E+00  0.3200E+00
     -3.653  0.0000E+00  0.3200E+00
     -3.469  0.0000E+00  0.3200E+00
     -3.286  0.0000E+00  0.3200E+00
     -3.102  0.0000E+00  0.3200E+00
     -2.918  0.0000E+00  0.3200E+00
     -2.735  0.0000E+00  0.3200E+00
     -2.551  0.0000E+00  0.3200E+00
     -2.367  0.9167E-01  0.3311E+00
     -2.184  0.1842E+00  0.3582E+00
     -2.000  0.9802E-01  0.3912E+00
     -1.816  0.1683E+00  0.4111E+00
     -1.632  0.2873E-01  0.4393E+00
     -1.449  0.0000E+00  0.4400E+00
     -1.265  0.0000E+00  0.4400E+00
     -1.081  0.0000E+00  0.4400E+00
     -0.898  0.0000E+00  0.4400E+00
     -0.714  0.0000E+00  0.4400E+00
     -0.530  0.0000E+00  0.4400E+00
     -0.347  0.0000E+00  0.4400E+00
     -0.163  0.0000E+00  0.4400E+00
      0.021  0.2894E+00  0.4613E+00
      0.204  0.6953E-01  0.4813E+00
      0.388  0.1464E+00  0.5011E+00
      0.572  0.9166E-01  0.5236E+00
      0.755  0.8753E-01  0.5484E+00
      0.939  0.3013E-01  0.5592E+00
      1.123  0.1367E+00  0.5810E+00
      1.307  0.7082E-01  0.5994E+00
      1.490  0.1215E+00  0.6135E+00
      1.674  0.5767E-01  0.6385E+00
      1.858  0.9431E-01  0.6608E+00
      2.041  0.7856E-01  0.6814E+00
      2.225  0.1123E+00  0.7034E+00
      2.409  0.0000E+00  0.7200E+00
      2.592  0.1042E+00  0.7441E+00
      2.776  0.0000E+00  0.7600E+00
      2.960  0.0000E+00  0.7600E+00
      3.143  0.0000E+00  0.7600E+00
      3.327  0.0000E+00  0.7600E+00
      3.511  0.0000E+00  0.7600E+00
      3.694  0.0000E+00  0.7600E+00
      3.878  0.0000E+00  0.7600E+00
      4.062  0.0000E+00  0.7600E+00
      4.246  0.0000E+00  0.7600E+00
      4.429  0.0000E+00  0.7600E+00
      4.613  0.0000E+00  0.7600E+00
      4.797  0.0000E+00  0.7600E+00
      4.980  0.0000E+00  0.7600E+00
      5.164  0.0000E+00  0.7600E+00
      5.348  0.0000E+00  0.7600E+00
      5.531  0.2251E-01  0.7619E+00
      5.715  0.4902E-01  0.7709E+00
      5.899  0.6311E-01  0.7830E+00
      6.082  0.4213E-01  0.7931E+00
      6.266  0.0000E+00  0.8000E+00
      6.450  0.0000E+00  0.8000E+00
      6.633  0.1749E+00  0.8150E+00
      6.817  0.5077E-01  0.8387E+00
      7.001  0.8071E-01  0.8481E+00
      7.184  0.1264E+00  0.8714E+00
      7.368  0.1002E+00  0.8917E+00
      7.552  0.1879E+00  0.9143E+00
      7.736  0.0000E+00  0.9200E+00
      7.919  0.0000E+00  0.9200E+00
      8.103  0.0000E+00  0.9200E+00
      8.287  0.1792E-01  0.9217E+00
      8.470  0.5546E-01  0.9288E+00
      8.654  0.1344E+00  0.9449E+00
      8.838  0.0000E+00  0.9600E+00
      9.021  0.0000E+00  0.9600E+00
      9.205  0.0000E+00  0.9600E+00
      9.389  0.0000E+00  0.9600E+00
      9.572  0.0000E+00  0.9600E+00
      9.756  0.0000E+00  0.9600E+00
      9.940  0.0000E+00  0.9600E+00
     10.123  0.0000E+00  0.9600E+00
     10.307  0.0000E+00  0.9600E+00
     10.491  0.0000E+00  0.9600E+00
     10.675  0.0000E+00  0.9600E+00
     10.858  0.0000E+00  0.9600E+00
     11.042  0.0000E+00  0.9600E+00
     11.226  0.0000E+00  0.9600E+00
