       N       E                     dE             d eps       ncg     rms          rms(c)
DAV:   1     0.497802961181E+03    0.49780E+03   -0.28777E+04   768   0.131E+03
DAV:   2    -0.117640463996E+02   -0.50957E+03   -0.48518E+03   928   0.306E+02
DAV:   3    -0.720708131194E+02   -0.60307E+02   -0.59871E+02  1056   0.975E+01
DAV:   4    -0.785992321127E+02   -0.65284E+01   -0.65056E+01  1408   0.305E+01
DAV:   5    -0.794373376908E+02   -0.83811E+00   -0.83791E+00  1136   0.718E+00    0.231E+01
RMM:   6    -0.773458136408E+02    0.20915E+01   -0.62913E+00   815   0.580E+00    0.152E+01
RMM:   7    -0.769243663221E+02    0.42145E+00   -0.26251E+00   823   0.415E+00    0.398E+00
RMM:   8    -0.768486990708E+02    0.75667E-01   -0.23617E-01   969   0.155E+00    0.581E-01
RMM:   9    -0.768424979871E+02    0.62011E-02   -0.34393E-02   997   0.595E-01    0.243E-01
RMM:  10    -0.768429074706E+02   -0.40948E-03   -0.83945E-03  1202   0.263E-01    0.138E-01
RMM:  11    -0.768432829799E+02   -0.37551E-03   -0.38564E-03  1120   0.159E-01    0.403E-02
RMM:  12    -0.768434467962E+02   -0.16382E-03   -0.18612E-03  1103   0.115E-01    0.210E-02
RMM:  13    -0.768435424279E+02   -0.95632E-04   -0.10409E-03   820   0.842E-02    0.152E-02
RMM:  14    -0.768435891228E+02   -0.46695E-04   -0.51469E-04   870   0.696E-02    0.342E-03
RMM:  15    -0.768436162455E+02   -0.27123E-04   -0.31372E-04   770   0.593E-02    0.300E-03
RMM:  16    -0.768436290978E+02   -0.12852E-04   -0.15608E-04   685   0.509E-02
   1 F= -.76843629E+02 E0= -.76843629E+02  d E =-.768436E+02
       N       E                     dE             d eps       ncg     rms          rms(c)
DAV:   1    -0.768547989948E+02   -0.11183E-01   -0.10496E+00   896   0.453E+00    0.652E-01
RMM:   2    -0.768568529220E+02   -0.20539E-02   -0.54085E-02   955   0.965E-01    0.231E-01
RMM:   3    -0.768558596845E+02    0.99324E-03   -0.45536E-03  1170   0.273E-01    0.183E-01
RMM:   4    -0.768555649134E+02    0.29477E-03   -0.14070E-03  1026   0.122E-01    0.601E-02
RMM:   5    -0.768555891235E+02   -0.24210E-04   -0.45373E-04  1089   0.692E-02    0.324E-02
RMM:   6    -0.768556033934E+02   -0.14270E-04   -0.23923E-04   972   0.495E-02    0.130E-02
RMM:   7    -0.768555954328E+02    0.79606E-05   -0.40653E-05   659   0.365E-02
   2 F= -.76855595E+02 E0= -.76855595E+02  d E =-.119663E-01
       N       E                     dE             d eps       ncg     rms          rms(c)
DAV:   1    -0.768595862038E+02   -0.39828E-02   -0.28082E+00   856   0.743E+00    0.108E+00
RMM:   2    -0.768645485655E+02   -0.49624E-02   -0.14008E-01   956   0.157E+00    0.374E-01
RMM:   3    -0.768620711083E+02    0.24775E-02   -0.12092E-02  1180   0.445E-01    0.299E-01
RMM:   4    -0.768613419745E+02    0.72913E-03   -0.38146E-03  1047   0.200E-01    0.102E-01
RMM:   5    -0.768614147897E+02   -0.72815E-04   -0.13509E-03  1154   0.116E-01    0.534E-02
RMM:   6    -0.768614602438E+02   -0.45454E-04   -0.72775E-04  1086   0.812E-02    0.208E-02
RMM:   7    -0.768614620093E+02   -0.17654E-05   -0.34813E-04  1038   0.582E-02    0.141E-02
RMM:   8    -0.768614565904E+02    0.54188E-05    0.12567E-05   482   0.400E-02
   3 F= -.76861457E+02 E0= -.76861457E+02  d E =-.178275E-01
       N       E                     dE             d eps       ncg     rms          rms(c)
DAV:   1    -0.768614726696E+02   -0.10660E-04   -0.98736E-01   864   0.447E+00    0.671E-01
RMM:   2    -0.768661959952E+02   -0.47233E-02   -0.51869E-02   971   0.974E-01    0.199E-01
RMM:   3    -0.768660954292E+02    0.10057E-03   -0.49019E-03  1235   0.283E-01    0.207E-01
RMM:   4    -0.768659957404E+02    0.99689E-04   -0.16923E-03  1119   0.124E-01    0.844E-02
RMM:   5    -0.768660364867E+02   -0.40746E-04   -0.60836E-04  1139   0.776E-02    0.257E-02
RMM:   6    -0.768660417136E+02   -0.52269E-05   -0.11188E-04   662   0.539E-02
   4 F= -.76866042E+02 E0= -.76866042E+02  d E =-.458512E-02
       N       E                     dE             d eps       ncg     rms          rms(c)
DAV:   1    -0.768660857272E+02   -0.49241E-04   -0.98152E-04  1112   0.114E-01    0.252E-02
RMM:   2    -0.768660920790E+02   -0.63518E-05   -0.79308E-05   625   0.360E-02
   5 F= -.76866092E+02 E0= -.76866092E+02  d E =-.463549E-02
       N       E                     dE             d eps       ncg     rms          rms(c)
DAV:   1    -0.768673068419E+02   -0.12211E-02   -0.33351E-02   896   0.754E-01    0.163E-01
RMM:   2    -0.768672996092E+02    0.72327E-05   -0.21849E-03   952   0.179E-01    0.620E-02
RMM:   3    -0.768672540572E+02    0.45552E-04   -0.25721E-04  1001   0.590E-02    0.396E-02
RMM:   4    -0.768672430044E+02    0.11053E-04   -0.55516E-05   698   0.322E-02
   6 F= -.76867243E+02 E0= -.76867243E+02  d E =-.115093E-02
       N       E                     dE             d eps       ncg     rms          rms(c)
DAV:   1    -0.768678694787E+02   -0.61542E-03   -0.66430E-02   832   0.107E+00    0.229E-01
RMM:   2    -0.768678716804E+02   -0.22017E-05   -0.44634E-03   951   0.257E-01    0.868E-02
RMM:   3    -0.768677943689E+02    0.77312E-04   -0.59066E-04  1112   0.869E-02    0.584E-02
RMM:   4    -0.768677769299E+02    0.17439E-04   -0.15321E-04   895   0.430E-02
   7 F= -.76867777E+02 E0= -.76867777E+02  d E =-.168485E-02
       N       E                     dE             d eps       ncg     rms          rms(c)
DAV:   1    -0.768681229535E+02   -0.32858E-03   -0.71140E-02   856   0.110E+00    0.239E-01
RMM:   2    -0.768684164558E+02   -0.29350E-03   -0.43475E-03   939   0.263E-01    0.596E-02
RMM:   3    -0.768683380170E+02    0.78439E-04   -0.28122E-04  1016   0.701E-02    0.471E-02
RMM:   4    -0.768683247138E+02    0.13303E-04   -0.15674E-04   843   0.401E-02
   8 F= -.76868325E+02 E0= -.76868325E+02  d E =-.547784E-03
       N       E                     dE             d eps       ncg     rms          rms(c)
DAV:   1    -0.768683228823E+02    0.15135E-04   -0.54282E-03   920   0.305E-01    0.615E-02
RMM:   2    -0.768683486707E+02   -0.25788E-04   -0.35959E-04   894   0.754E-02    0.175E-02
RMM:   3    -0.768683405666E+02    0.81041E-05    0.17026E-06   471   0.263E-02
   9 F= -.76868341E+02 E0= -.76868341E+02  d E =-.563637E-03
       N       E                     dE             d eps       ncg     rms          rms(c)
DAV:   1    -0.768685845290E+02   -0.23586E-03   -0.36063E-02   800   0.844E-01    0.115E-01
RMM:   2    -0.768687267482E+02   -0.14222E-03   -0.18208E-03   958   0.180E-01    0.349E-02
RMM:   3    -0.768687106007E+02    0.16148E-04   -0.13786E-04   849   0.539E-02
  10 F= -.76868711E+02 E0= -.76868711E+02  d E =-.370034E-03
       N       E                     dE             d eps       ncg     rms          rms(c)
DAV:   1    -0.768683365993E+02    0.39015E-03   -0.21286E-01   768   0.205E+00    0.263E-01
RMM:   2    -0.768691465556E+02   -0.80996E-03   -0.10320E-02   960   0.431E-01    0.865E-02
RMM:   3    -0.768690719282E+02    0.74627E-04   -0.90408E-04  1124   0.125E-01    0.778E-02
RMM:   4    -0.768690377924E+02    0.34136E-04   -0.33334E-04   971   0.599E-02    0.220E-02
RMM:   5    -0.768690326084E+02    0.51840E-05    0.13102E-05   488   0.386E-02
  11 F= -.76869033E+02 E0= -.76869033E+02  d E =-.692042E-03
       N       E                     dE             d eps       ncg     rms          rms(c)
DAV:   1    -0.768691869038E+02   -0.14911E-03   -0.10644E-02   896   0.454E-01    0.598E-02
RMM:   2    -0.768692267113E+02   -0.39807E-04   -0.63896E-04   950   0.104E-01    0.234E-02
RMM:   3    -0.768692189605E+02    0.77508E-05   -0.14214E-05   559   0.410E-02
  12 F= -.76869219E+02 E0= -.76869219E+02  d E =-.186352E-03
       N       E                     dE             d eps       ncg     rms          rms(c)
DAV:   1    -0.768693479144E+02   -0.12120E-03   -0.28813E-02   784   0.740E-01    0.907E-02
RMM:   2    -0.768694531464E+02   -0.10523E-03   -0.15270E-03   960   0.164E-01    0.406E-02
RMM:   3    -0.768694476923E+02    0.54541E-05   -0.17751E-04   924   0.572E-02
  13 F= -.76869448E+02 E0= -.76869448E+02  d E =-.415084E-03
       N       E                     dE             d eps       ncg     rms          rms(c)
DAV:   1    -0.768695220165E+02   -0.68870E-04   -0.17087E-03   960   0.177E-01    0.545E-02
RMM:   2    -0.768695216853E+02    0.33116E-06   -0.16350E-04   849   0.513E-02
  14 F= -.76869522E+02 E0= -.76869522E+02  d E =-.739930E-04
       N       E                     dE             d eps       ncg     rms          rms(c)
DAV:   1    -0.768695708051E+02   -0.48789E-04   -0.53966E-03   816   0.323E-01    0.988E-02
RMM:   2    -0.768695509406E+02    0.19864E-04   -0.45810E-04   958   0.882E-02    0.386E-02
RMM:   3    -0.768695333807E+02    0.17560E-04   -0.68680E-05   655   0.329E-02
  15 F= -.76869533E+02 E0= -.76869533E+02  d E =-.856884E-04
