 vasp.5.4.4.18Apr17-6-g9f103f2a35 (build Feb 28 2020 14:15:47) complex          
  
 executed on             LinuxIFC date 2022.08.07  09:22:21
 running on   64 total cores
 distrk:  each k-point on   64 cores,    1 groups
 distr:  one band on NCORES_PER_BAND=  16 cores,    4 groups


--------------------------------------------------------------------------------------------------------


 INCAR:
 POTCAR:    PAW P 26Mar2009                       
 POTCAR:    PAW S 27Mar2009                       
 POTCAR:    PAW Li_sv 10Sep2004                   
 POTCAR:    PAW P 26Mar2009                       
   VRHFIN =P : s2p3                                                             
   LEXCH  = CA                                                                  
   EATOM  =   176.5121 eV,   12.9733 Ry                                         
                                                                                
   TITEL  = PAW P 26Mar2009                                                     
   LULTRA =        F    use ultrasoft PP ?                                      
   IUNSCR =        1    unscreen: 0-lin 1-nonlin 2-no                           
   RPACOR =    1.500    partial core radius                                     
   POMASS =   30.974; ZVAL   =    5.000    mass and valenz                      
   RCORE  =    1.900    outmost cutoff radius                                   
   RWIGS  =    2.330; RWIGS  =    1.233    wigner-seitz radius (au A)           
   ENMAX  =  255.155; ENMIN  =  191.366 eV                                      
   ICORE  =        2    local potential                                         
   LCOR   =        T    correct aug charges                                     
   LPAW   =        T    paw PP                                                  
   EAUG   =  342.924                                                            
   DEXC   =    0.000                                                            
   RMAX   =    1.935    core radius for proj-oper                               
   RAUG   =    1.300    factor for augmentation sphere                          
   RDEP   =    1.931    radius for radial grids                                 
   RDEPT  =    1.780    core radius for aug-charge                              
                                                                                
   Atomic configuration                                                         
    6 entries                                                                   
     n  l   j            E        occ.                                          
     1  0  0.50     -2072.7761   2.0000                                         
     2  0  0.50      -172.9483   2.0000                                         
     2  1  1.50      -124.4644   6.0000                                         
     3  0  0.50       -14.0086   2.0000                                         
     3  1  0.50        -5.6037   3.0000                                         
     3  2  1.50        -6.8029   0.0000                                         
   Description                                                                  
     l       E           TYP  RCUT    TYP  RCUT                                 
     0    -14.0086211     23  1.900                                             
     0    -11.8189335     23  1.900                                             
     1     -5.6037292     23  1.900                                             
     1     -0.3527308     23  1.900                                             
     2     -6.8029130     23  1.900                                             
  local pseudopotential read in
  partial core-charges read in
  partial kinetic energy density read in
  atomic valenz-charges read in
  non local Contribution for L=           0  read in
    real space projection operators read in
  non local Contribution for L=           0  read in
    real space projection operators read in
  non local Contribution for L=           1  read in
    real space projection operators read in
  non local Contribution for L=           1  read in
    real space projection operators read in
    PAW grid and wavefunctions read in
 
   number of l-projection  operators is LMAX  =           4
   number of lm-projection operators is LMMAX =           8
 
 POTCAR:    PAW S 27Mar2009                       
   VRHFIN =S : s2p4                                                             
   LEXCH  = CA                                                                  
   EATOM  =   277.3745 eV,   20.3864 Ry                                         
                                                                                
   TITEL  = PAW S 27Mar2009                                                     
   LULTRA =        F    use ultrasoft PP ?                                      
   IUNSCR =        1    unscreen: 0-lin 1-nonlin 2-no                           
   RPACOR =    1.500    partial core radius                                     
   POMASS =   32.066; ZVAL   =    6.000    mass and valenz                      
   RCORE  =    1.900    outmost cutoff radius                                   
   RWIGS  =    2.200; RWIGS  =    1.164    wigner-seitz radius (au A)           
   ENMAX  =  258.602; ENMIN  =  193.952 eV                                      
   ICORE  =        2    local potential                                         
   LCOR   =        T    correct aug charges                                     
   LPAW   =        T    paw PP                                                  
   EAUG   =  335.092                                                            
   DEXC   =    0.000                                                            
   RMAX   =    1.942    core radius for proj-oper                               
   RAUG   =    1.300    factor for augmentation sphere                          
   RDEP   =    1.954    radius for radial grids                                 
   RDEPT  =    1.744    core radius for aug-charge                              
                                                                                
   Atomic configuration                                                         
    6 entries                                                                   
     n  l   j            E        occ.                                          
     1  0  0.50     -2393.1495   2.0000                                         
     2  0  0.50      -210.5411   2.0000                                         
     2  1  1.50      -156.4410   6.0000                                         
     3  0  0.50       -17.2664   2.0000                                         
     3  1  0.50        -7.1129   4.0000                                         
     3  2  1.50        -8.1635   0.0000                                         
   Description                                                                  
     l       E           TYP  RCUT    TYP  RCUT                                 
     0    -17.2664422     23  1.900                                             
     0    -15.8420823     23  1.900                                             
     1     -7.1129072     23  1.900                                             
     1     -2.8398274     23  1.900                                             
     2     -8.1634956     23  1.900                                             
  local pseudopotential read in
  partial core-charges read in
  partial kinetic energy density read in
  atomic valenz-charges read in
  non local Contribution for L=           0  read in
    real space projection operators read in
  non local Contribution for L=           0  read in
    real space projection operators read in
  non local Contribution for L=           1  read in
    real space projection operators read in
  non local Contribution for L=           1  read in
    real space projection operators read in
    PAW grid and wavefunctions read in
 
   number of l-projection  operators is LMAX  =           4
   number of lm-projection operators is LMMAX =           8
 
 POTCAR:    PAW Li_sv 10Sep2004                   
   VRHFIN =Li: 1s2s                                                             
   LEXCH  = CA                                                                  
   EATOM  =   199.5738 eV,   14.6683 Ry                                         
                                                                                
   TITEL  = PAW Li_sv 10Sep2004                                                 
   LULTRA =        F    use ultrasoft PP ?                                      
   IUNSCR =        0    unscreen: 0-lin 1-nonlin 2-no                           
   RPACOR =    0.000    partial core radius                                     
   POMASS =    7.010; ZVAL   =    3.000    mass and valenz                      
   RCORE  =    1.700    outmost cutoff radius                                   
   RWIGS  =    2.050; RWIGS  =    1.085    wigner-seitz radius (au A)           
   ENMAX  =  498.387; ENMIN  =  373.790 eV                                      
   ICORE  =        2    local potential                                         
   LCOR   =        T    correct aug charges                                     
   LPAW   =        T    paw PP                                                  
   EAUG   =  628.945                                                            
   RMAX   =    1.732    core radius for proj-oper                               
   RAUG   =    1.300    factor for augmentation sphere                          
   RDEP   =    1.728    radius for radial grids                                 
   RDEPT  =    1.329    core radius for aug-charge                              
                                                                                
   Atomic configuration                                                         
    4 entries                                                                   
     n  l   j            E        occ.                                          
     1  0  0.50       -51.0884   2.0000                                         
     2  0  0.50        -2.8766   1.0000                                         
     2  1  0.50        -2.8708   0.0000                                         
     3  2  1.50        -1.3606   0.0000                                         
   Description                                                                  
     l       E           TYP  RCUT    TYP  RCUT                                 
     0    -51.0884324     23  1.400                                             
     0     -2.8766458     23  1.700                                             
     1     -2.8708293     23  1.400                                             
     2     -1.3605826     23  1.400                                             
  local pseudopotential read in
  atomic valenz-charges read in
  non local Contribution for L=           0  read in
    real space projection operators read in
  non local Contribution for L=           0  read in
    real space projection operators read in
  non local Contribution for L=           1  read in
    real space projection operators read in
    PAW grid and wavefunctions read in
 
   number of l-projection  operators is LMAX  =           3
   number of lm-projection operators is LMMAX =           5
 
 Optimization of the real space projectors (new method)

 maximal supplied QI-value         = 19.84
 optimisation between [QCUT,QGAM] = [ 10.32, 20.83] = [ 29.81,121.55] Ry 
 Optimized for a Real-space Cutoff    1.39 Angstroem

   l    n(q)    QCUT    max X(q) W(low)/X(q) W(high)/X(q)  e(spline) 
   0      9    10.318   158.476    0.64E-04    0.80E-04    0.60E-07
   0      9    10.318   128.097    0.63E-04    0.79E-04    0.60E-07
   1      8    10.318    73.217    0.18E-03    0.19E-03    0.20E-06
   1      8    10.318    48.248    0.18E-03    0.19E-03    0.19E-06
 Optimization of the real space projectors (new method)

 maximal supplied QI-value         = 19.84
 optimisation between [QCUT,QGAM] = [ 10.32, 20.83] = [ 29.81,121.55] Ry 
 Optimized for a Real-space Cutoff    1.39 Angstroem

   l    n(q)    QCUT    max X(q) W(low)/X(q) W(high)/X(q)  e(spline) 
   0      9    10.318   180.455    0.73E-04    0.81E-04    0.62E-07
   0      9    10.318   157.733    0.72E-04    0.81E-04    0.62E-07
   1      8    10.318    66.201    0.18E-03    0.20E-03    0.20E-06
   1      8    10.318    49.617    0.18E-03    0.20E-03    0.20E-06
 Optimization of the real space projectors (new method)

 maximal supplied QI-value         = 22.11
 optimisation between [QCUT,QGAM] = [ 10.39, 20.78] = [ 30.24,120.96] Ry 
 Optimized for a Real-space Cutoff    1.20 Angstroem

   l    n(q)    QCUT    max X(q) W(low)/X(q) W(high)/X(q)  e(spline) 
   0      7    10.392    10.443    0.77E-04    0.41E-05    0.30E-07
   0      7    10.392     8.514    0.20E-03    0.36E-04    0.67E-07
   1      7    10.392     5.406    0.20E-03    0.20E-03    0.12E-06
  PAW P 26Mar2009                       :
 energy of atom  1       EATOM= -176.5121
 kinetic energy error for atom=    0.0021 (will be added to EATOM!!)
  PAW S 27Mar2009                       :
 energy of atom  2       EATOM= -277.3745
 kinetic energy error for atom=    0.0041 (will be added to EATOM!!)
  PAW Li_sv 10Sep2004                   :
 energy of atom  3       EATOM= -199.5738
 kinetic energy error for atom=    0.0564 (will be added to EATOM!!)
 
 
 POSCAR: Good luck                               
  positions in cartesian coordinates
  No initial velocities read in
 exchange correlation table for  LEXCH =        2
   RHO(1)=    0.500       N(1)  =     2000
   RHO(2)=  100.500       N(2)  =     4000
 


--------------------------------------------------------------------------------------------------------


 ion  position               nearest neighbor table
   1  0.000  0.771  0.417-   7 2.03   9 2.03   6 2.04   3 2.04
   2  0.500  0.229  0.917-   8 2.03  10 2.03   4 2.04   5 2.04
   3  0.208  0.601  0.304-   1 2.04  13 2.41  14 2.42  12 2.57  11 2.62
   4  0.292  0.399  0.804-   2 2.04  14 2.41  13 2.42  11 2.57  12 2.62
   5  0.708  0.399  0.804-   2 2.04  15 2.41  16 2.42  11 2.57  12 2.62
   6  0.792  0.601  0.304-   1 2.04  16 2.41  15 2.42  12 2.57  11 2.62
   7  0.000  0.064  0.257-   1 2.03  15 2.37  14 2.37
   8  0.500  0.936  0.757-   2 2.03  13 2.37  16 2.37
   9  0.000  0.818  0.756-   1 2.03  16 2.38  13 2.38
  10  0.500  0.182  0.256-   2 2.03  14 2.38  15 2.38
  11  0.000  0.434  0.004-   5 2.57   4 2.57   6 2.62   3 2.62
  12  0.500  0.566  0.504-   3 2.57   6 2.57   4 2.62   5 2.62
  13  0.267  0.768  0.944-   8 2.37   9 2.38   3 2.41   4 2.42
  14  0.233  0.232  0.444-   7 2.37  10 2.38   4 2.41   3 2.42
  15  0.767  0.232  0.444-   7 2.37  10 2.38   5 2.41   6 2.42
  16  0.733  0.768  0.944-   8 2.37   9 2.38   6 2.41   5 2.42
 
  LATTYP: Found a simple orthorhombic cell.
 ALAT       =     5.9308324166
 B/A-ratio  =     1.0339877674
 C/A-ratio  =     1.3136224581
  
  Lattice vectors:
  
 A1 = (   0.0000000000,   0.0000000000,  -5.9308324166)
 A2 = (   0.0000000000,  -6.1324081694,   0.0000000000)
 A3 = (  -7.7908746578,   0.0000000000,   0.0000000000)


Analysis of symmetry for initial positions (statically):
=====================================================================
 Subroutine PRICEL returns:
 Original cell was already a primitive cell.
 

 Routine SETGRP: Setting up the symmetry group for a 
 simple orthorhombic supercell.


 Subroutine GETGRP returns: Found  4 space group operations
 (whereof  2 operations were pure point group operations)
 out of a pool of  8 trial point group operations.


The static configuration has the point symmetry C_1h.
 The point group associated with its full space group is C_2v.


Analysis of symmetry for dynamics (positions and initial velocities):
=====================================================================
 Subroutine PRICEL returns:
 Original cell was already a primitive cell.
 

 Routine SETGRP: Setting up the symmetry group for a 
 simple orthorhombic supercell.


 Subroutine GETGRP returns: Found  4 space group operations
 (whereof  2 operations were pure point group operations)
 out of a pool of  8 trial point group operations.


The dynamic configuration has the point symmetry C_1h.
 The point group associated with its full space group is C_2v.


 Subroutine INISYM returns: Found  4 space group operations
 (whereof  2 operations are pure point group operations),
 and found     1 'primitive' translations

 
 
 KPOINTS: Automatic mesh                          

Automatic generation of k-mesh.
Space group operators:
 irot       det(A)        alpha          n_x          n_y          n_z        tau_x        tau_y        tau_z
    1     1.000000     0.000000     1.000000     0.000000     0.000000     0.000000     0.000000     0.000000
    2    -1.000000   180.000000     1.000000     0.000000     0.000000     0.000000     0.000000     0.000000
    3    -1.000000   180.000000     0.000000     1.000000     0.000000    -0.500000    -0.000000    -0.500000
    4     1.000000   180.000000     0.000000     0.000000     1.000000    -0.500000    -0.000000    -0.500000
 
 Subroutine IBZKPT returns following result:
 ===========================================
 
 Found      8 irreducible k-points:
 
 Following reciprocal coordinates:
            Coordinates               Weight
  0.125000  0.125000  0.125000      8.000000
  0.375000  0.125000  0.125000      8.000000
  0.125000  0.375000  0.125000      8.000000
  0.375000  0.375000  0.125000      8.000000
  0.125000  0.125000  0.375000      8.000000
  0.375000  0.125000  0.375000      8.000000
  0.125000  0.375000  0.375000      8.000000
  0.375000  0.375000  0.375000      8.000000
 
 Following cartesian coordinates:
            Coordinates               Weight
  0.016044  0.020384  0.021076      8.000000
  0.048133  0.020384  0.021076      8.000000
  0.016044  0.061151  0.021076      8.000000
  0.048133  0.061151  0.021076      8.000000
  0.016044  0.020384  0.063229      8.000000
  0.048133  0.020384  0.063229      8.000000
  0.016044  0.061151  0.063229      8.000000
  0.048133  0.061151  0.063229      8.000000
 
 TETIRR: Found    140 inequivalent tetrahedra from      384


--------------------------------------------------------------------------------------------------------




 Dimension of arrays:
   k-points           NKPTS =      8   k-points in BZ     NKDIM =      8   number of bands    NBANDS=     48
   number of dos      NEDOS =    301   number of ions     NIONS =     16
   non local maximal  LDIM  =      4   non local SUM 2l+1 LMDIM =      8
   total plane-waves  NPLWV =  90720
   max r-space proj   IRMAX =   3633   max aug-charges    IRDMAX=  10285
   dimension x,y,z NGX =    54 NGY =   42 NGZ =   40
   dimension x,y,z NGXF=   108 NGYF=   84 NGZF=   80
   support grid    NGXF=   108 NGYF=   84 NGZF=   80
   ions per type =               2   8   6
   NGX,Y,Z   is equivalent  to a cutoff of  11.52, 11.39, 11.21 a.u.
   NGXF,Y,Z  is equivalent  to a cutoff of  23.05, 22.77, 22.42 a.u.

 SYSTEM =  unknown system                          
 POSCAR =  Good luck                               

 Startparameter for this run:
   NWRITE =      2    write-flag & timer
   PREC   = accura    normal or accurate (medium, high low for compatibility)
   ISTART =      0    job   : 0-new  1-cont  2-samecut
   ICHARG =      2    charge: 1-file 2-atom 10-const
   ISPIN  =      1    spin polarized calculation?
   LNONCOLLINEAR =      F non collinear calculations
   LSORBIT =      F    spin-orbit coupling
   INIWAV =      1    electr: 0-lowe 1-rand  2-diag
   LASPH  =      F    aspherical Exc in radial PAW
   METAGGA=      F    non-selfconsistent MetaGGA calc.

 Electronic Relaxation 1
   ENCUT  =  420.0 eV  30.87 Ry    5.56 a.u.  13.02 10.25  9.91*2*pi/ulx,y,z
   ENINI  =  420.0     initial cutoff
   ENAUG  =  628.9 eV  augmentation charge cutoff
   NELM   =    100;   NELMIN=  2; NELMDL= -5     # of ELM steps 
   EDIFF  = 0.2E-04   stopping-criterion for ELM
   LREAL  =      T    real-space projection
   NLSPLINE    = F    spline interpolate recip. space projectors
   LCOMPAT=      F    compatible to vasp.4.4
   GGA_COMPAT  = T    GGA compatible to vasp.4.4-vasp.4.6
   LMAXPAW     = -100 max onsite density
   LMAXMIX     =    2 max onsite mixed and CHGCAR
   VOSKOWN=      0    Vosko Wilk Nusair interpolation
   ROPT   =   -0.00025  -0.00025  -0.00025
 Ionic relaxation
   EDIFFG = 0.2E-03   stopping-criterion for IOM
   NSW    =    100    number of steps for IOM
   NBLOCK =      1;   KBLOCK =    100    inner block; outer block 
   IBRION =      2    ionic relax: 0-MD 1-quasi-New 2-CG
   NFREE  =      1    steps in history (QN), initial steepest desc. (CG)
   ISIF   =      3    stress and relaxation
   IWAVPR =     11    prediction:  0-non 1-charg 2-wave 3-comb
   ISYM   =      2    0-nonsym 1-usesym 2-fastsym
   LCORR  =      T    Harris-Foulkes like correction to forces

   POTIM  = 0.5000    time-step for ionic-motion
   TEIN   =    0.0    initial temperature
   TEBEG  =    0.0;   TEEND  =   0.0 temperature during run
   SMASS  =  -3.00    Nose mass-parameter (am)
   estimated Nose-frequenzy (Omega)   =  0.10E-29 period in steps =****** mass=  -0.139E-26a.u.
   SCALEE = 1.0000    scale energy and forces
   NPACO  =    256;   APACO  = 16.0  distance and # of slots for P.C.
   PSTRESS=    0.0 pullay stress

  Mass of Ions in am
   POMASS =  30.97 32.07  7.01
  Ionic Valenz
   ZVAL   =   5.00  6.00  3.00
  Atomic Wigner-Seitz radii
   RWIGS  =  -1.00 -1.00 -1.00
  virtual crystal weights 
   VCA    =   1.00  1.00  1.00
   NELECT =      76.0000    total number of electrons
   NUPDOWN=      -1.0000    fix difference up-down

 DOS related values:
   EMIN   =  10.00;   EMAX   =-10.00  energy-range for DOS
   EFERMI =   0.00
   ISMEAR =    -5;   SIGMA  =   0.20  broadening in eV -4-tet -1-fermi 0-gaus

 Electronic relaxation 2 (details)
   IALGO  =     68    algorithm
   LDIAG  =      T    sub-space diagonalisation (order eigenvalues)
   LSUBROT=      F    optimize rotation matrix (better conditioning)
   TURBO    =      0    0=normal 1=particle mesh
   IRESTART =      0    0=no restart 2=restart with 2 vectors
   NREBOOT  =      0    no. of reboots
   NMIN     =      0    reboot dimension
   EREF     =   0.00    reference energy to select bands
   IMIX   =      4    mixing-type and parameters
     AMIX     =   0.40;   BMIX     =  1.00
     AMIX_MAG =   1.60;   BMIX_MAG =  1.00
     AMIN     =   0.10
     WC   =   100.;   INIMIX=   1;  MIXPRE=   1;  MAXMIX= -45

 Intra band minimization:
   WEIMIN = 0.0010     energy-eigenvalue tresh-hold
   EBREAK =  0.10E-06  absolut break condition
   DEPER  =   0.30     relativ break condition  

   TIME   =   0.40     timestep for ELM

  volume/ion in A,a.u.               =      17.71       119.51
  Fermi-wavevector in a.u.,A,eV,Ry     =   1.055768  1.995112 15.165673  1.114646
  Thomas-Fermi vector in A             =   2.190978
 
 Write flags
   LWAVE        =      F    write WAVECAR
   LDOWNSAMPLE  =      F    k-point downsampling of WAVECAR
   LCHARG       =      F    write CHGCAR
   LVTOT        =      F    write LOCPOT, total local potential
   LVHAR        =      F    write LOCPOT, Hartree potential only
   LELF         =      F    write electronic localiz. function (ELF)
   LORBIT       =      0    0 simple, 1 ext, 2 COOP (PROOUT), +10 PAW based schemes


 Dipole corrections
   LMONO  =      F    monopole corrections only (constant potential shift)
   LDIPOL =      F    correct potential (dipole corrections)
   IDIPOL =      0    1-x, 2-y, 3-z, 4-all directions 
   EPSILON=  1.0000000 bulk dielectric constant

 Exchange correlation treatment:
   GGA     =    --    GGA type
   LEXCH   =     2    internal setting for exchange type
   VOSKOWN=      0    Vosko Wilk Nusair interpolation
   LHFCALC =     F    Hartree Fock is set to
   LHFONE  =     F    Hartree Fock one center treatment
   AEXX    =    0.0000 exact exchange contribution

 Linear response parameters
   LEPSILON=     F    determine dielectric tensor
   LRPA    =     F    only Hartree local field effects (RPA)
   LNABLA  =     F    use nabla operator in PAW spheres
   LVEL    =     F    velocity operator in full k-point grid
   LINTERFAST=   F  fast interpolation
   KINTER  =     0    interpolate to denser k-point grid
   CSHIFT  =0.1000    complex shift for real part using Kramers Kronig
   OMEGAMAX=  -1.0    maximum frequency
   DEG_THRESHOLD= 0.2000000E-02 threshold for treating states as degnerate
   RTIME   =   -0.100 relaxation time in fs
  (WPLASMAI=    0.000 imaginary part of plasma frequency in eV, 0.658/RTIME)
   DFIELD  = 0.0000000 0.0000000 0.0000000 field for delta impulse in time
 
 Orbital magnetization related:
   ORBITALMAG=     F  switch on orbital magnetization
   LCHIMAG   =     F  perturbation theory with respect to B field
   DQ        =  0.001000  dq finite difference perturbation B field
   LLRAUG    =     F  two centre corrections for induced B field



--------------------------------------------------------------------------------------------------------


 conjugate gradient relaxation of ions
 charge density and potential will be updated during run
 non-spin polarized calculation
 RMM-DIIS sequential band-by-band and
  variant of blocked Davidson during initial phase
 perform sub-space diagonalisation
    before iterative eigenvector-optimisation
 modified Broyden-mixing scheme, WC =      100.0
 initial mixing is a Kerker type mixing with AMIX =  0.4000 and BMIX =      1.0000
 Hartree-type preconditioning will be used
 using additional bands           10
 real space projection scheme for non local part
 use partial core corrections
 calculate Harris-corrections to forces 
   (improved forces if not selfconsistent)
 use of overlap-Matrix (Vanderbilt PP)
 Fermi weights with tetrahedron method with Bloechl corrections


--------------------------------------------------------------------------------------------------------


  energy-cutoff  :      420.00
  volume of cell :      283.36
      direct lattice vectors                 reciprocal lattice vectors
     7.790874658  0.000000000  0.000000000     0.128355293  0.000000000  0.000000000
     0.000000000  6.132408169  0.000000000     0.000000000  0.163068076  0.000000000
     0.000000000  0.000000000  5.930832417     0.000000000  0.000000000  0.168610396

  length of vectors
     7.790874658  6.132408169  5.930832417     0.128355293  0.163068076  0.168610396


 
 k-points in units of 2pi/SCALE and weight: Automatic mesh                          
   0.01604441  0.02038351  0.02107630       0.125
   0.04813323  0.02038351  0.02107630       0.125
   0.01604441  0.06115053  0.02107630       0.125
   0.04813323  0.06115053  0.02107630       0.125
   0.01604441  0.02038351  0.06322890       0.125
   0.04813323  0.02038351  0.06322890       0.125
   0.01604441  0.06115053  0.06322890       0.125
   0.04813323  0.06115053  0.06322890       0.125
 
 k-points in reciprocal lattice and weights: Automatic mesh                          
   0.12500000  0.12500000  0.12500000       0.125
   0.37500000  0.12500000  0.12500000       0.125
   0.12500000  0.37500000  0.12500000       0.125
   0.37500000  0.37500000  0.12500000       0.125
   0.12500000  0.12500000  0.37500000       0.125
   0.37500000  0.12500000  0.37500000       0.125
   0.12500000  0.37500000  0.37500000       0.125
   0.37500000  0.37500000  0.37500000       0.125
 
 position of ions in fractional coordinates (direct lattice) 
   0.00000000  0.77138124  0.41675780
   0.50000000  0.22861876  0.91675780
   0.20831662  0.60140021  0.30383537
   0.29168338  0.39859979  0.80383537
   0.70831662  0.39859979  0.80383537
   0.79168338  0.60140021  0.30383537
   0.00000000  0.06371228  0.25684882
   0.50000000  0.93628772  0.75684882
   0.00000000  0.81764131  0.75611764
   0.50000000  0.18235869  0.25611764
   0.00000000  0.43426565  0.00404234
   0.50000000  0.56573435  0.50404234
   0.26659509  0.76804014  0.94350607
   0.23340491  0.23195986  0.44350607
   0.76659509  0.23195986  0.44350607
   0.73340491  0.76804014  0.94350607
 
 position of ions in cartesian coordinates  (Angst):
   0.00000000  4.73042461  2.47172067
   3.89543733  1.40198356  5.43713688
   1.62296865  3.68803159  1.80199666
   2.27246868  2.44437658  4.76741286
   5.51840598  2.44437658  4.76741286
   6.16790600  3.68803159  1.80199666
   0.00000000  0.39070971  1.52332732
   3.89543733  5.74169846  4.48874353
   0.00000000  5.01411025  4.48440702
   3.89543733  1.11829792  1.51899082
   0.00000000  2.66309424  0.02397446
   3.89543733  3.46931393  2.98939067
   2.07700897  4.70993560  5.59577636
   1.81842836  1.42247257  2.63036016
   5.97244629  1.42247257  2.63036016
   5.71386569  4.70993560  5.59577636
 


--------------------------------------------------------------------------------------------------------


 k-point  1 :   0.1250 0.1250 0.1250  plane waves:    5543
 k-point  2 :   0.3750 0.1250 0.1250  plane waves:    5523
 k-point  3 :   0.1250 0.3750 0.1250  plane waves:    5531
 k-point  4 :   0.3750 0.3750 0.1250  plane waves:    5536
 k-point  5 :   0.1250 0.1250 0.3750  plane waves:    5542
 k-point  6 :   0.3750 0.1250 0.3750  plane waves:    5550
 k-point  7 :   0.1250 0.3750 0.3750  plane waves:    5540
 k-point  8 :   0.3750 0.3750 0.3750  plane waves:    5551

 maximum and minimum number of plane-waves per node :       358      332

 maximum number of plane-waves:      5551
 maximum index in each direction: 
   IXMAX=   12   IYMAX=   10   IZMAX=    9
   IXMIN=  -13   IYMIN=  -10   IZMIN=  -10


 real space projection operators:
  total allocation   :       2698.19 KBytes
  max/ min on nodes  :        205.80        145.86


 parallel 3D FFT for wavefunctions:
    minimum data exchange during FFTs selected (reduces bandwidth)
 parallel 3D FFT for charge:
    minimum data exchange during FFTs selected (reduces bandwidth)


 total amount of memory used by VASP MPI-rank0    33603. kBytes
=======================================================================

   base      :      30000. kBytes
   nonlr-proj:       1232. kBytes
   fftplans  :        656. kBytes
   grid      :       1147. kBytes
   one-center:          3. kBytes
   wavefun   :        565. kBytes
 
     INWAV:  cpu time    0.0000: real time    0.0000
 Broyden mixing: mesh for mixing (old mesh)
   NGX = 27   NGY = 21   NGZ = 19
  (NGX  =108   NGY  = 84   NGZ  = 80)
  gives a total of  10773 points

 initial charge density was supplied:
 charge density of overlapping atoms calculated
 number of electron      76.0000000 magnetization 
 keeping initial charge density in first step


--------------------------------------------------------------------------------------------------------


 Maximum index for non-local projection operator          436
 Maximum index for augmentation-charges          545 (set IRDMAX)


--------------------------------------------------------------------------------------------------------


 First call to EWALD:  gamma=   0.270
 Maximum number of real-space cells 2x 3x 3
 Maximum number of reciprocal cells 3x 3x 3

    FEWALD:  cpu time    0.0016: real time    0.0016


--------------------------------------- Iteration      1(   1)  ---------------------------------------


    POTLOK:  cpu time    0.0056: real time    0.0090
    SETDIJ:  cpu time    0.0036: real time    0.0047
     EDDAV:  cpu time    0.2000: real time    0.2082
 BZINTS: Fermi energy: 15.350113; 76.000000 electrons
         Band energy:-109.518296;  BLOECHL correction: -0.100786
       DOS:  cpu time    0.0079: real time    0.0079
    --------------------------------------------
      LOOP:  cpu time    0.2171: real time    0.2298

 eigenvalue-minimisations  :   768
 total energy-change (2. order) : 0.4978030E+03  (-0.2877690E+04)
 number of electron      76.0000000 magnetization 
 augmentation part       76.0000000 magnetization 

 Free energy of the ion-electron system (eV)
  ---------------------------------------------------
  alpha Z        PSCENC =        69.64008182
  Ewald energy   TEWEN  =     -2741.09998047
  -Hartree energ DENC   =      -625.52928097
  -exchange      EXHF   =         0.00000000
  -V(xc)+E(xc)   XCENC  =       182.12033332
  PAW double counting   =      2494.22442938    -2541.12215007
  entropy T*S    EENTRO =         0.00000000
  eigenvalues    EBANDS =      -109.51829562
  atomic energy  EATOM  =      3769.08782378
  Solvation  Ediel_sol  =         0.00000000
  ---------------------------------------------------
  free energy    TOTEN  =       497.80296118 eV

  energy without entropy =      497.80296118  energy(sigma->0) =      497.80296118


--------------------------------------------------------------------------------------------------------




--------------------------------------- Iteration      1(   2)  ---------------------------------------


     EDDAV:  cpu time    0.1990: real time    0.1993
 BZINTS: Fermi energy:  5.418217; 76.000000 electrons
         Band energy:-619.085303;  BLOECHL correction:  0.000000
       DOS:  cpu time    0.0013: real time    0.0013
    --------------------------------------------
      LOOP:  cpu time    0.2003: real time    0.2005

 eigenvalue-minimisations  :   928
 total energy-change (2. order) :-0.5095670E+03  (-0.4851758E+03)
 number of electron      76.0000000 magnetization 
 augmentation part       76.0000000 magnetization 

 Free energy of the ion-electron system (eV)
  ---------------------------------------------------
  alpha Z        PSCENC =        69.64008182
  Ewald energy   TEWEN  =     -2741.09998047
  -Hartree energ DENC   =      -625.52928097
  -exchange      EXHF   =         0.00000000
  -V(xc)+E(xc)   XCENC  =       182.12033332
  PAW double counting   =      2494.22442938    -2541.12215007
  entropy T*S    EENTRO =         0.00000000
  eigenvalues    EBANDS =      -619.08530320
  atomic energy  EATOM  =      3769.08782378
  Solvation  Ediel_sol  =         0.00000000
  ---------------------------------------------------
  free energy    TOTEN  =       -11.76404640 eV

  energy without entropy =      -11.76404640  energy(sigma->0) =      -11.76404640


--------------------------------------------------------------------------------------------------------




--------------------------------------- Iteration      1(   3)  ---------------------------------------


     EDDAV:  cpu time    0.2183: real time    0.2186
 BZINTS: Fermi energy:  2.114378; 76.000000 electrons
         Band energy:-679.392070;  BLOECHL correction:  0.000000
       DOS:  cpu time    0.0012: real time    0.0012
    --------------------------------------------
      LOOP:  cpu time    0.2195: real time    0.2198

 eigenvalue-minimisations  :  1056
 total energy-change (2. order) :-0.6030677E+02  (-0.5987145E+02)
 number of electron      76.0000000 magnetization 
 augmentation part       76.0000000 magnetization 

 Free energy of the ion-electron system (eV)
  ---------------------------------------------------
  alpha Z        PSCENC =        69.64008182
  Ewald energy   TEWEN  =     -2741.09998047
  -Hartree energ DENC   =      -625.52928097
  -exchange      EXHF   =         0.00000000
  -V(xc)+E(xc)   XCENC  =       182.12033332
  PAW double counting   =      2494.22442938    -2541.12215007
  entropy T*S    EENTRO =         0.00000000
  eigenvalues    EBANDS =      -679.39206992
  atomic energy  EATOM  =      3769.08782378
  Solvation  Ediel_sol  =         0.00000000
  ---------------------------------------------------
  free energy    TOTEN  =       -72.07081312 eV

  energy without entropy =      -72.07081312  energy(sigma->0) =      -72.07081312


--------------------------------------------------------------------------------------------------------




--------------------------------------- Iteration      1(   4)  ---------------------------------------


     EDDAV:  cpu time    0.2757: real time    0.2760
 BZINTS: Fermi energy:  2.086202; 76.000000 electrons
         Band energy:-685.920489;  BLOECHL correction:  0.000000
       DOS:  cpu time    0.0014: real time    0.0014
    --------------------------------------------
      LOOP:  cpu time    0.2771: real time    0.2774

 eigenvalue-minimisations  :  1408
 total energy-change (2. order) :-0.6528419E+01  (-0.6505622E+01)
 number of electron      76.0000000 magnetization 
 augmentation part       76.0000000 magnetization 

 Free energy of the ion-electron system (eV)
  ---------------------------------------------------
  alpha Z        PSCENC =        69.64008182
  Ewald energy   TEWEN  =     -2741.09998047
  -Hartree energ DENC   =      -625.52928097
  -exchange      EXHF   =         0.00000000
  -V(xc)+E(xc)   XCENC  =       182.12033332
  PAW double counting   =      2494.22442938    -2541.12215007
  entropy T*S    EENTRO =         0.00000000
  eigenvalues    EBANDS =      -685.92048892
  atomic energy  EATOM  =      3769.08782378
  Solvation  Ediel_sol  =         0.00000000
  ---------------------------------------------------
  free energy    TOTEN  =       -78.59923211 eV

  energy without entropy =      -78.59923211  energy(sigma->0) =      -78.59923211


--------------------------------------------------------------------------------------------------------




--------------------------------------- Iteration      1(   5)  ---------------------------------------


     EDDAV:  cpu time    0.2356: real time    0.2359
 BZINTS: Fermi energy:  2.066474; 76.000000 electrons
         Band energy:-686.758594;  BLOECHL correction:  0.000000
       DOS:  cpu time    0.0013: real time    0.0013
    CHARGE:  cpu time    0.0187: real time    0.0189
    MIXING:  cpu time    0.0008: real time    0.0029
    --------------------------------------------
      LOOP:  cpu time    0.2564: real time    0.2589

 eigenvalue-minimisations  :  1136
 total energy-change (2. order) :-0.8381056E+00  (-0.8379086E+00)
 number of electron      76.0000056 magnetization 
 augmentation part       -1.7250563 magnetization 

 Broyden mixing:
  rms(total) = 0.23121E+01    rms(broyden)= 0.23115E+01
  rms(prec ) = 0.25358E+01
  weight for this iteration     100.00

 Free energy of the ion-electron system (eV)
  ---------------------------------------------------
  alpha Z        PSCENC =        69.64008182
  Ewald energy   TEWEN  =     -2741.09998047
  -Hartree energ DENC   =      -625.52928097
  -exchange      EXHF   =         0.00000000
  -V(xc)+E(xc)   XCENC  =       182.12033332
  PAW double counting   =      2494.22442938    -2541.12215007
  entropy T*S    EENTRO =         0.00000000
  eigenvalues    EBANDS =      -686.75859449
  atomic energy  EATOM  =      3769.08782378
  Solvation  Ediel_sol  =         0.00000000
  ---------------------------------------------------
  free energy    TOTEN  =       -79.43733769 eV

  energy without entropy =      -79.43733769  energy(sigma->0) =      -79.43733769


--------------------------------------------------------------------------------------------------------




--------------------------------------- Iteration      1(   6)  ---------------------------------------


    POTLOK:  cpu time    0.0044: real time    0.0046
    SETDIJ:  cpu time    0.0014: real time    0.0014
    EDDIAG:  cpu time    0.0522: real time    0.0530
  RMM-DIIS:  cpu time    0.0878: real time    0.0878
    ORTHCH:  cpu time    0.0070: real time    0.0070
 BZINTS: Fermi energy:  2.506956; 76.000000 electrons
         Band energy:-670.423238;  BLOECHL correction:  0.000000
       DOS:  cpu time    0.0015: real time    0.0015
    CHARGE:  cpu time    0.0170: real time    0.0170
    MIXING:  cpu time    0.0005: real time    0.0005
    --------------------------------------------
      LOOP:  cpu time    0.1718: real time    0.1728

 eigenvalue-minimisations  :   815
 total energy-change (2. order) : 0.2091524E+01  (-0.6291283E+00)
 number of electron      76.0000055 magnetization 
 augmentation part       -1.6773927 magnetization 

 Broyden mixing:
  rms(total) = 0.15187E+01    rms(broyden)= 0.15187E+01
  rms(prec ) = 0.15786E+01
  weight for this iteration     100.00

 eigenvalues of (default mixing * dielectric matrix)
  average eigenvalue GAMMA=   2.4704
  2.4704

 Free energy of the ion-electron system (eV)
  ---------------------------------------------------
  alpha Z        PSCENC =        69.64008182
  Ewald energy   TEWEN  =     -2741.09998047
  -Hartree energ DENC   =      -639.53666759
  -exchange      EXHF   =         0.00000000
  -V(xc)+E(xc)   XCENC  =       183.68418864
  PAW double counting   =      4004.00990997    -4052.70793144
  entropy T*S    EENTRO =         0.00000000
  eigenvalues    EBANDS =      -670.42323835
  atomic energy  EATOM  =      3769.08782378
  Solvation  Ediel_sol  =         0.00000000
  ---------------------------------------------------
  free energy    TOTEN  =       -77.34581364 eV

  energy without entropy =      -77.34581364  energy(sigma->0) =      -77.34581364


--------------------------------------------------------------------------------------------------------




--------------------------------------- Iteration      1(   7)  ---------------------------------------


    POTLOK:  cpu time    0.0038: real time    0.0041
    SETDIJ:  cpu time    0.0015: real time    0.0015
    EDDIAG:  cpu time    0.0519: real time    0.0519
  RMM-DIIS:  cpu time    0.0870: real time    0.0870
    ORTHCH:  cpu time    0.0070: real time    0.0070
 BZINTS: Fermi energy:  2.824719; 76.000000 electrons
         Band energy:-655.284884;  BLOECHL correction:  0.000000
       DOS:  cpu time    0.0012: real time    0.0012
    CHARGE:  cpu time    0.0169: real time    0.0169
    MIXING:  cpu time    0.0006: real time    0.0006
    --------------------------------------------
      LOOP:  cpu time    0.1697: real time    0.1701

 eigenvalue-minimisations  :   823
 total energy-change (2. order) : 0.4214473E+00  (-0.2625089E+00)
 number of electron      76.0000055 magnetization 
 augmentation part       -1.6405997 magnetization 

 Broyden mixing:
  rms(total) = 0.39847E+00    rms(broyden)= 0.39847E+00
  rms(prec ) = 0.42364E+00
  weight for this iteration     100.00

 eigenvalues of (default mixing * dielectric matrix)
  average eigenvalue GAMMA=   1.9218
  1.4105  2.4330

 Free energy of the ion-electron system (eV)
  ---------------------------------------------------
  alpha Z        PSCENC =        69.64008182
  Ewald energy   TEWEN  =     -2741.09998047
  -Hartree energ DENC   =      -654.14027367
  -exchange      EXHF   =         0.00000000
  -V(xc)+E(xc)   XCENC  =       185.26256897
  PAW double counting   =      6806.55414921    -6856.94385156
  entropy T*S    EENTRO =         0.00000000
  eigenvalues    EBANDS =      -655.28488440
  atomic energy  EATOM  =      3769.08782378
  Solvation  Ediel_sol  =         0.00000000
  ---------------------------------------------------
  free energy    TOTEN  =       -76.92436632 eV

  energy without entropy =      -76.92436632  energy(sigma->0) =      -76.92436632


--------------------------------------------------------------------------------------------------------




--------------------------------------- Iteration      1(   8)  ---------------------------------------


    POTLOK:  cpu time    0.0036: real time    0.0039
    SETDIJ:  cpu time    0.0013: real time    0.0013
    EDDIAG:  cpu time    0.0511: real time    0.0511
  RMM-DIIS:  cpu time    0.1078: real time    0.1078
    ORTHCH:  cpu time    0.0069: real time    0.0069
 BZINTS: Fermi energy:  2.783726; 76.000000 electrons
         Band energy:-655.033904;  BLOECHL correction:  0.000000
       DOS:  cpu time    0.0014: real time    0.0014
    CHARGE:  cpu time    0.0169: real time    0.0169
    MIXING:  cpu time    0.0006: real time    0.0006
    --------------------------------------------
      LOOP:  cpu time    0.1895: real time    0.1899

 eigenvalue-minimisations  :   969
 total energy-change (2. order) : 0.7566725E-01  (-0.2361683E-01)
 number of electron      76.0000055 magnetization 
 augmentation part       -1.6689112 magnetization 

 Broyden mixing:
  rms(total) = 0.58053E-01    rms(broyden)= 0.58024E-01
  rms(prec ) = 0.71234E-01
  weight for this iteration     100.00

 eigenvalues of (default mixing * dielectric matrix)
  average eigenvalue GAMMA=   1.6750
  1.0260  2.2541  1.7450

 Free energy of the ion-electron system (eV)
  ---------------------------------------------------
  alpha Z        PSCENC =        69.64008182
  Ewald energy   TEWEN  =     -2741.09998047
  -Hartree energ DENC   =      -654.28184538
  -exchange      EXHF   =         0.00000000
  -V(xc)+E(xc)   XCENC  =       185.32588577
  PAW double counting   =      7563.54356194    -7614.03032262
  entropy T*S    EENTRO =         0.00000000
  eigenvalues    EBANDS =      -655.03390392
  atomic energy  EATOM  =      3769.08782378
  Solvation  Ediel_sol  =         0.00000000
  ---------------------------------------------------
  free energy    TOTEN  =       -76.84869907 eV

  energy without entropy =      -76.84869907  energy(sigma->0) =      -76.84869907


--------------------------------------------------------------------------------------------------------




--------------------------------------- Iteration      1(   9)  ---------------------------------------


    POTLOK:  cpu time    0.0036: real time    0.0039
    SETDIJ:  cpu time    0.0014: real time    0.0014
    EDDIAG:  cpu time    0.0519: real time    0.0519
  RMM-DIIS:  cpu time    0.1065: real time    0.1066
    ORTHCH:  cpu time    0.0069: real time    0.0069
 BZINTS: Fermi energy:  2.777649; 76.000000 electrons
         Band energy:-656.122818;  BLOECHL correction:  0.000000
       DOS:  cpu time    0.0016: real time    0.0016
    CHARGE:  cpu time    0.0168: real time    0.0168
    MIXING:  cpu time    0.0006: real time    0.0006
    --------------------------------------------
      LOOP:  cpu time    0.1892: real time    0.1896

 eigenvalue-minimisations  :   997
 total energy-change (2. order) : 0.6201084E-02  (-0.3439331E-02)
 number of electron      76.0000055 magnetization 
 augmentation part       -1.6843446 magnetization 

 Broyden mixing:
  rms(total) = 0.24256E-01    rms(broyden)= 0.24239E-01
  rms(prec ) = 0.25967E-01
  weight for this iteration     100.00

 eigenvalues of (default mixing * dielectric matrix)
  average eigenvalue GAMMA=   1.7706
  1.2181  2.1473  1.8585  1.8585

 Free energy of the ion-electron system (eV)
  ---------------------------------------------------
  alpha Z        PSCENC =        69.64008182
  Ewald energy   TEWEN  =     -2741.09998047
  -Hartree energ DENC   =      -653.15319081
  -exchange      EXHF   =         0.00000000
  -V(xc)+E(xc)   XCENC  =       185.25995157
  PAW double counting   =      7465.69077136    -7516.14513681
  entropy T*S    EENTRO =         0.00000000
  eigenvalues    EBANDS =      -656.12281843
  atomic energy  EATOM  =      3769.08782378
  Solvation  Ediel_sol  =         0.00000000
  ---------------------------------------------------
  free energy    TOTEN  =       -76.84249799 eV

  energy without entropy =      -76.84249799  energy(sigma->0) =      -76.84249799


--------------------------------------------------------------------------------------------------------




--------------------------------------- Iteration      1(  10)  ---------------------------------------


    POTLOK:  cpu time    0.0038: real time    0.0041
    SETDIJ:  cpu time    0.0015: real time    0.0015
    EDDIAG:  cpu time    0.0532: real time    0.0532
  RMM-DIIS:  cpu time    0.1372: real time    0.1372
    ORTHCH:  cpu time    0.0079: real time    0.0079
 BZINTS: Fermi energy:  2.773214; 76.000000 electrons
         Band energy:-655.789333;  BLOECHL correction:  0.000000
       DOS:  cpu time    0.0014: real time    0.0014
    CHARGE:  cpu time    0.0177: real time    0.0177
    MIXING:  cpu time    0.0006: real time    0.0006
    --------------------------------------------
      LOOP:  cpu time    0.2232: real time    0.2236

 eigenvalue-minimisations  :  1202
 total energy-change (2. order) :-0.4094835E-03  (-0.8394501E-03)
 number of electron      76.0000055 magnetization 
 augmentation part       -1.6885618 magnetization 

 Broyden mixing:
  rms(total) = 0.13788E-01    rms(broyden)= 0.13773E-01
  rms(prec ) = 0.14596E-01
  weight for this iteration     100.00

 eigenvalues of (default mixing * dielectric matrix)
  average eigenvalue GAMMA=   1.7905
  2.4006  2.4006  1.9772  1.2970  0.8772

 Free energy of the ion-electron system (eV)
  ---------------------------------------------------
  alpha Z        PSCENC =        69.64008182
  Ewald energy   TEWEN  =     -2741.09998047
  -Hartree energ DENC   =      -653.48836601
  -exchange      EXHF   =         0.00000000
  -V(xc)+E(xc)   XCENC  =       185.29188551
  PAW double counting   =      7442.25992831    -7492.74494783
  entropy T*S    EENTRO =         0.00000000
  eigenvalues    EBANDS =      -655.78933258
  atomic energy  EATOM  =      3769.08782378
  Solvation  Ediel_sol  =         0.00000000
  ---------------------------------------------------
  free energy    TOTEN  =       -76.84290747 eV

  energy without entropy =      -76.84290747  energy(sigma->0) =      -76.84290747


--------------------------------------------------------------------------------------------------------




--------------------------------------- Iteration      1(  11)  ---------------------------------------


    POTLOK:  cpu time    0.0041: real time    0.0044
    SETDIJ:  cpu time    0.0015: real time    0.0015
    EDDIAG:  cpu time    0.0530: real time    0.0530
  RMM-DIIS:  cpu time    0.1234: real time    0.1234
    ORTHCH:  cpu time    0.0069: real time    0.0069
 BZINTS: Fermi energy:  2.769275; 76.000000 electrons
         Band energy:-655.620373;  BLOECHL correction:  0.000000
       DOS:  cpu time    0.0015: real time    0.0015
    CHARGE:  cpu time    0.0170: real time    0.0170
    MIXING:  cpu time    0.0006: real time    0.0006
    --------------------------------------------
      LOOP:  cpu time    0.2079: real time    0.2083

 eigenvalue-minimisations  :  1120
 total energy-change (2. order) :-0.3755093E-03  (-0.3856360E-03)
 number of electron      76.0000055 magnetization 
 augmentation part       -1.6908433 magnetization 

 Broyden mixing:
  rms(total) = 0.40276E-02    rms(broyden)= 0.40093E-02
  rms(prec ) = 0.46043E-02
  weight for this iteration     100.00

 eigenvalues of (default mixing * dielectric matrix)
  average eigenvalue GAMMA=   1.7017
  2.4557  2.4557  1.0212  1.5640  1.3568  1.3568

 Free energy of the ion-electron system (eV)
  ---------------------------------------------------
  alpha Z        PSCENC =        69.64008182
  Ewald energy   TEWEN  =     -2741.09998047
  -Hartree energ DENC   =      -653.66254589
  -exchange      EXHF   =         0.00000000
  -V(xc)+E(xc)   XCENC  =       185.30757389
  PAW double counting   =      7416.67602308    -7467.17188614
  entropy T*S    EENTRO =         0.00000000
  eigenvalues    EBANDS =      -655.62037306
  atomic energy  EATOM  =      3769.08782378
  Solvation  Ediel_sol  =         0.00000000
  ---------------------------------------------------
  free energy    TOTEN  =       -76.84328298 eV

  energy without entropy =      -76.84328298  energy(sigma->0) =      -76.84328298


--------------------------------------------------------------------------------------------------------




--------------------------------------- Iteration      1(  12)  ---------------------------------------


    POTLOK:  cpu time    0.0036: real time    0.0039
    SETDIJ:  cpu time    0.0014: real time    0.0014
    EDDIAG:  cpu time    0.0514: real time    0.0514
  RMM-DIIS:  cpu time    0.1197: real time    0.1197
    ORTHCH:  cpu time    0.0069: real time    0.0069
 BZINTS: Fermi energy:  2.763520; 76.000000 electrons
         Band energy:-655.648647;  BLOECHL correction:  0.000000
       DOS:  cpu time    0.0014: real time    0.0014
    CHARGE:  cpu time    0.0172: real time    0.0172
    MIXING:  cpu time    0.0007: real time    0.0007
    --------------------------------------------
      LOOP:  cpu time    0.2023: real time    0.2026

 eigenvalue-minimisations  :  1103
 total energy-change (2. order) :-0.1638163E-03  (-0.1861160E-03)
 number of electron      76.0000054 magnetization 
 augmentation part       -1.6927488 magnetization 

 Broyden mixing:
  rms(total) = 0.20997E-02    rms(broyden)= 0.20854E-02
  rms(prec ) = 0.23857E-02
  weight for this iteration     100.00

 eigenvalues of (default mixing * dielectric matrix)
  average eigenvalue GAMMA=   1.5864
  2.3758  2.3758  1.6855  1.6855  1.0219  1.3460  0.6142

 Free energy of the ion-electron system (eV)
  ---------------------------------------------------
  alpha Z        PSCENC =        69.64008182
  Ewald energy   TEWEN  =     -2741.09998047
  -Hartree energ DENC   =      -653.64245019
  -exchange      EXHF   =         0.00000000
  -V(xc)+E(xc)   XCENC  =       185.30906909
  PAW double counting   =      7424.82365434    -7475.31299791
  entropy T*S    EENTRO =         0.00000000
  eigenvalues    EBANDS =      -655.64864725
  atomic energy  EATOM  =      3769.08782378
  Solvation  Ediel_sol  =         0.00000000
  ---------------------------------------------------
  free energy    TOTEN  =       -76.84344680 eV

  energy without entropy =      -76.84344680  energy(sigma->0) =      -76.84344680


--------------------------------------------------------------------------------------------------------




--------------------------------------- Iteration      1(  13)  ---------------------------------------


    POTLOK:  cpu time    0.0036: real time    0.0039
    SETDIJ:  cpu time    0.0014: real time    0.0014
    EDDIAG:  cpu time    0.0514: real time    0.0514
  RMM-DIIS:  cpu time    0.0885: real time    0.0885
    ORTHCH:  cpu time    0.0069: real time    0.0069
 BZINTS: Fermi energy:  2.759355; 76.000000 electrons
         Band energy:-655.627487;  BLOECHL correction:  0.000000
       DOS:  cpu time    0.0015: real time    0.0015
    CHARGE:  cpu time    0.0169: real time    0.0169
    MIXING:  cpu time    0.0007: real time    0.0007
    --------------------------------------------
      LOOP:  cpu time    0.1710: real time    0.1713

 eigenvalue-minimisations  :   820
 total energy-change (2. order) :-0.9563173E-04  (-0.1040855E-03)
 number of electron      76.0000054 magnetization 
 augmentation part       -1.6935869 magnetization 

 Broyden mixing:
  rms(total) = 0.15185E-02    rms(broyden)= 0.15098E-02
  rms(prec ) = 0.16849E-02
  weight for this iteration     100.00

 eigenvalues of (default mixing * dielectric matrix)
  average eigenvalue GAMMA=   1.8202
  3.4797  2.4585  2.0936  2.0936  1.3860  1.0284  1.0108  1.0108

 Free energy of the ion-electron system (eV)
  ---------------------------------------------------
  alpha Z        PSCENC =        69.64008182
  Ewald energy   TEWEN  =     -2741.09998047
  -Hartree energ DENC   =      -653.67329489
  -exchange      EXHF   =         0.00000000
  -V(xc)+E(xc)   XCENC  =       185.31136665
  PAW double counting   =      7424.43593015    -7474.91798209
  entropy T*S    EENTRO =         0.00000000
  eigenvalues    EBANDS =      -655.62748738
  atomic energy  EATOM  =      3769.08782378
  Solvation  Ediel_sol  =         0.00000000
  ---------------------------------------------------
  free energy    TOTEN  =       -76.84354243 eV

  energy without entropy =      -76.84354243  energy(sigma->0) =      -76.84354243


--------------------------------------------------------------------------------------------------------




--------------------------------------- Iteration      1(  14)  ---------------------------------------


    POTLOK:  cpu time    0.0036: real time    0.0040
    SETDIJ:  cpu time    0.0013: real time    0.0013
    EDDIAG:  cpu time    0.0513: real time    0.0513
  RMM-DIIS:  cpu time    0.0947: real time    0.0947
    ORTHCH:  cpu time    0.0069: real time    0.0069
 BZINTS: Fermi energy:  2.757512; 76.000000 electrons
         Band energy:-655.619783;  BLOECHL correction:  0.000000
       DOS:  cpu time    0.0014: real time    0.0014
    CHARGE:  cpu time    0.0167: real time    0.0167
    MIXING:  cpu time    0.0007: real time    0.0007
    --------------------------------------------
      LOOP:  cpu time    0.1766: real time    0.1771

 eigenvalue-minimisations  :   870
 total energy-change (2. order) :-0.4669491E-04  (-0.5146861E-04)
 number of electron      76.0000054 magnetization 
 augmentation part       -1.6942211 magnetization 

 Broyden mixing:
  rms(total) = 0.34170E-03    rms(broyden)= 0.32709E-03
  rms(prec ) = 0.53793E-03
  weight for this iteration     100.00

 eigenvalues of (default mixing * dielectric matrix)
  average eigenvalue GAMMA=   1.7223
  3.0074  2.4982  2.1542  2.1542  1.6733  1.3001  0.9482  0.9482  0.8170

 Free energy of the ion-electron system (eV)
  ---------------------------------------------------
  alpha Z        PSCENC =        69.64008182
  Ewald energy   TEWEN  =     -2741.09998047
  -Hartree energ DENC   =      -653.69776229
  -exchange      EXHF   =         0.00000000
  -V(xc)+E(xc)   XCENC  =       185.31441360
  PAW double counting   =      7422.00248280    -7472.47086576
  entropy T*S    EENTRO =         0.00000000
  eigenvalues    EBANDS =      -655.61978260
  atomic energy  EATOM  =      3769.08782378
  Solvation  Ediel_sol  =         0.00000000
  ---------------------------------------------------
  free energy    TOTEN  =       -76.84358912 eV

  energy without entropy =      -76.84358912  energy(sigma->0) =      -76.84358912


--------------------------------------------------------------------------------------------------------




--------------------------------------- Iteration      1(  15)  ---------------------------------------


    POTLOK:  cpu time    0.0037: real time    0.0040
    SETDIJ:  cpu time    0.0014: real time    0.0014
    EDDIAG:  cpu time    0.0516: real time    0.0516
  RMM-DIIS:  cpu time    0.0802: real time    0.0802
    ORTHCH:  cpu time    0.0073: real time    0.0073
 BZINTS: Fermi energy:  2.755231; 76.000000 electrons
         Band energy:-655.615468;  BLOECHL correction:  0.000000
       DOS:  cpu time    0.0015: real time    0.0015
    CHARGE:  cpu time    0.0170: real time    0.0170
    MIXING:  cpu time    0.0008: real time    0.0008
    --------------------------------------------
      LOOP:  cpu time    0.1633: real time    0.1637

 eigenvalue-minimisations  :   770
 total energy-change (2. order) :-0.2712271E-04  (-0.3137224E-04)
 number of electron      76.0000054 magnetization 
 augmentation part       -1.6945685 magnetization 

 Broyden mixing:
  rms(total) = 0.30001E-03    rms(broyden)= 0.29290E-03
  rms(prec ) = 0.34730E-03
  weight for this iteration     100.00

 eigenvalues of (default mixing * dielectric matrix)
  average eigenvalue GAMMA=   1.6812
  3.2404  2.3999  2.3999  2.4267  1.7258  1.3028  1.0111  0.9221  0.6914  0.6914

 Free energy of the ion-electron system (eV)
  ---------------------------------------------------
  alpha Z        PSCENC =        69.64008182
  Ewald energy   TEWEN  =     -2741.09998047
  -Hartree energ DENC   =      -653.70253782
  -exchange      EXHF   =         0.00000000
  -V(xc)+E(xc)   XCENC  =       185.31456978
  PAW double counting   =      7422.02676655    -7472.49487182
  entropy T*S    EENTRO =         0.00000000
  eigenvalues    EBANDS =      -655.61546807
  atomic energy  EATOM  =      3769.08782378
  Solvation  Ediel_sol  =         0.00000000
  ---------------------------------------------------
  free energy    TOTEN  =       -76.84361625 eV

  energy without entropy =      -76.84361625  energy(sigma->0) =      -76.84361625


--------------------------------------------------------------------------------------------------------




--------------------------------------- Iteration      1(  16)  ---------------------------------------


    POTLOK:  cpu time    0.0035: real time    0.0039
    SETDIJ:  cpu time    0.0014: real time    0.0014
    EDDIAG:  cpu time    0.0512: real time    0.0512
  RMM-DIIS:  cpu time    0.0733: real time    0.0733
    ORTHCH:  cpu time    0.0069: real time    0.0069
 BZINTS: Fermi energy:  2.753043; 76.000000 electrons
         Band energy:-655.614716;  BLOECHL correction:  0.000000
       DOS:  cpu time    0.0014: real time    0.0014
    --------------------------------------------
      LOOP:  cpu time    0.1378: real time    0.1381

 eigenvalue-minimisations  :   685
 total energy-change (2. order) :-0.1285228E-04  (-0.1560837E-04)
 number of electron      76.0000054 magnetization 
 augmentation part       -1.6945685 magnetization 

 Free energy of the ion-electron system (eV)
  ---------------------------------------------------
  alpha Z        PSCENC =        69.64008182
  Ewald energy   TEWEN  =     -2741.09998047
  -Hartree energ DENC   =      -653.70506571
  -exchange      EXHF   =         0.00000000
  -V(xc)+E(xc)   XCENC  =       185.31487390
  PAW double counting   =      7422.01853368    -7472.48517972
  entropy T*S    EENTRO =         0.00000000
  eigenvalues    EBANDS =      -655.61471638
  atomic energy  EATOM  =      3769.08782378
  Solvation  Ediel_sol  =         0.00000000
  ---------------------------------------------------
  free energy    TOTEN  =       -76.84362910 eV

  energy without entropy =      -76.84362910  energy(sigma->0) =      -76.84362910


--------------------------------------------------------------------------------------------------------




 average (electrostatic) potential at core
  the test charge radii are     0.9587  0.9698  0.7079
  (the norm of the test charge is              1.0000)
       1 -88.0230       2 -88.0230       3 -88.0799       4 -88.0799       5 -88.0799
       6 -88.0799       7 -88.0059       8 -88.0059       9 -88.0384      10 -88.0384
      11 -64.3097      12 -64.3097      13 -63.5683      14 -63.5683      15 -63.5683
      16 -63.5683
 
 
 
 E-fermi :   2.7530     XC(G=0):  -9.1854     alpha+bet :-10.6585


 k-point     1 :       0.1250    0.1250    0.1250
  band No.  band energies     occupation 
      1     -41.4566      2.00000
      2     -41.4566      2.00000
      3     -40.7386      2.00000
      4     -40.7383      2.00000
      5     -40.7379      2.00000
      6     -40.7376      2.00000
      7     -12.4061      2.00000
      8     -12.2320      2.00000
      9      -9.4757      2.00000
     10      -9.3329      2.00000
     11      -9.2976      2.00000
     12      -9.0764      2.00000
     13      -9.0211      2.00000
     14      -8.9219      2.00000
     15      -5.4093      2.00000
     16      -4.8047      2.00000
     17      -2.5329      2.00000
     18      -2.3510      2.00000
     19      -2.2098      2.00000
     20      -2.0731      2.00000
     21      -1.9274      2.00000
     22      -1.8146      2.00000
     23      -0.1418      2.00000
     24      -0.0100      2.00000
     25       0.2162      2.00000
     26       0.4838      2.00000
     27       0.6927      2.00000
     28       0.9286      2.00000
     29       1.1304      2.00000
     30       1.3129      2.00000
     31       1.5461      2.00000
     32       1.5839      2.00000
     33       1.8400      2.00000
     34       1.9797      2.00000
     35       2.1376      2.00000
     36       2.2607      2.00000
     37       2.4749      2.00000
     38       2.6995      2.00000
     39       5.7841      0.00000
     40       6.1010      0.00000
     41       6.4269      0.00000
     42       6.6124      0.00000
     43       6.9154      0.00000
     44       7.2454      0.00000
     45       7.4662      0.00000
     46       7.5722      0.00000
     47       8.1608      0.00000
     48       8.8626      0.00000

 k-point     2 :       0.3750    0.1250    0.1250
  band No.  band energies     occupation 
      1     -41.4566      2.00000
      2     -41.4566      2.00000
      3     -40.7384      2.00000
      4     -40.7383      2.00000
      5     -40.7378      2.00000
      6     -40.7377      2.00000
      7     -12.3576      2.00000
      8     -12.2856      2.00000
      9      -9.4048      2.00000
     10      -9.3327      2.00000
     11      -9.2734      2.00000
     12      -9.1820      2.00000
     13      -8.9968      2.00000
     14      -8.9491      2.00000
     15      -5.2213      2.00000
     16      -4.9711      2.00000
     17      -2.4785      2.00000
     18      -2.4123      2.00000
     19      -2.1853      2.00000
     20      -2.0865      2.00000
     21      -1.9083      2.00000
     22      -1.8513      2.00000
     23      -0.1409      2.00000
     24      -0.0556      2.00000
     25       0.4461      2.00000
     26       0.5562      2.00000
     27       0.7636      2.00000
     28       0.9463      2.00000
     29       1.0738      2.00000
     30       1.2624      2.00000
     31       1.4867      2.00000
     32       1.6146      2.00000
     33       1.7628      2.00000
     34       1.9530      2.00000
     35       1.9837      2.00000
     36       2.1193      2.00000
     37       2.4366      2.00000
     38       2.5458      2.00000
     39       5.9918      0.00000
     40       6.1907      0.00000
     41       6.6340      0.00000
     42       6.7862      0.00000
     43       7.1111      0.00000
     44       7.2242      0.00000
     45       7.3430      0.00000
     46       7.5020      0.00000
     47       8.5430      0.00000
     48       8.7426      0.00000

 k-point     3 :       0.1250    0.3750    0.1250
  band No.  band energies     occupation 
      1     -41.4566      2.00000
      2     -41.4566      2.00000
      3     -40.7385      2.00000
      4     -40.7383      2.00000
      5     -40.7378      2.00000
      6     -40.7377      2.00000
      7     -12.3493      2.00000
      8     -12.2444      2.00000
      9      -9.4823      2.00000
     10      -9.4424      2.00000
     11      -9.3196      2.00000
     12      -9.1113      2.00000
     13      -9.0254      2.00000
     14      -8.9322      2.00000
     15      -5.2018      2.00000
     16      -4.7595      2.00000
     17      -2.5436      2.00000
     18      -2.3384      2.00000
     19      -2.2175      2.00000
     20      -2.0585      2.00000
     21      -1.8917      2.00000
     22      -1.7479      2.00000
     23      -0.0765      2.00000
     24       0.0487      2.00000
     25       0.3562      2.00000
     26       0.4808      2.00000
     27       0.5463      2.00000
     28       0.8033      2.00000
     29       1.0442      2.00000
     30       1.2037      2.00000
     31       1.4981      2.00000
     32       1.6926      2.00000
     33       1.8170      2.00000
     34       1.9848      2.00000
     35       2.1492      2.00000
     36       2.2902      2.00000
     37       2.4221      2.00000
     38       2.6444      2.00000
     39       5.5939      0.00000
     40       6.1683      0.00000
     41       6.5446      0.00000
     42       6.6243      0.00000
     43       6.9081      0.00000
     44       7.0457      0.00000
     45       7.1971      0.00000
     46       7.5130      0.00000
     47       8.4758      0.00000
     48       8.7509      0.00000

 k-point     4 :       0.3750    0.3750    0.1250
  band No.  band energies     occupation 
      1     -41.4566      2.00000
      2     -41.4566      2.00000
      3     -40.7384      2.00000
      4     -40.7383      2.00000
      5     -40.7379      2.00000
      6     -40.7378      2.00000
      7     -12.3187      2.00000
      8     -12.2752      2.00000
      9      -9.4858      2.00000
     10      -9.4619      2.00000
     11      -9.2461      2.00000
     12      -9.1562      2.00000
     13      -9.0082      2.00000
     14      -8.9689      2.00000
     15      -5.0576      2.00000
     16      -4.8739      2.00000
     17      -2.4602      2.00000
     18      -2.3717      2.00000
     19      -2.1790      2.00000
     20      -2.1353      2.00000
     21      -1.8225      2.00000
     22      -1.7634      2.00000
     23      -0.0443      2.00000
     24       0.0554      2.00000
     25       0.1647      2.00000
     26       0.3648      2.00000
     27       0.6928      2.00000
     28       0.7785      2.00000
     29       0.9269      2.00000
     30       1.1569      2.00000
     31       1.5556      2.00000
     32       1.6555      2.00000
     33       1.8472      2.00000
     34       1.9770      2.00000
     35       2.1451      2.00000
     36       2.2516      2.00000
     37       2.4854      2.00000
     38       2.6237      2.00000
     39       5.7862      0.00000
     40       6.0451      0.00000
     41       6.6477      0.00000
     42       6.7711      0.00000
     43       7.0462      0.00000
     44       7.1928      0.00000
     45       7.4089      0.00000
     46       7.5388      0.00000
     47       8.5438      0.00000
     48       8.7178      0.00000

 k-point     5 :       0.1250    0.1250    0.3750
  band No.  band energies     occupation 
      1     -41.4566      2.00000
      2     -41.4566      2.00000
      3     -40.7385      2.00000
      4     -40.7383      2.00000
      5     -40.7378      2.00000
      6     -40.7377      2.00000
      7     -12.3127      2.00000
      8     -12.2364      2.00000
      9      -9.4569      2.00000
     10      -9.3625      2.00000
     11      -9.3101      2.00000
     12      -9.1939      2.00000
     13      -9.0894      2.00000
     14      -9.0782      2.00000
     15      -5.1263      2.00000
     16      -4.8559      2.00000
     17      -2.2291      2.00000
     18      -2.1407      2.00000
     19      -2.0757      2.00000
     20      -1.9815      2.00000
     21      -1.9108      2.00000
     22      -1.7645      2.00000
     23       0.0022      2.00000
     24       0.0745      2.00000
     25       0.1443      2.00000
     26       0.3171      2.00000
     27       0.4648      2.00000
     28       0.6441      2.00000
     29       1.1142      2.00000
     30       1.3221      2.00000
     31       1.5233      2.00000
     32       1.6283      2.00000
     33       1.7615      2.00000
     34       1.9055      2.00000
     35       2.0635      2.00000
     36       2.2669      2.00000
     37       2.4600      2.00000
     38       2.6592      2.00000
     39       5.4146      0.00000
     40       5.7689      0.00000
     41       6.4428      0.00000
     42       6.5977      0.00000
     43       7.1290      0.00000
     44       7.2539      0.00000
     45       7.3856      0.00000
     46       7.5355      0.00000
     47       8.3714      0.00000
     48       8.7558      0.00000

 k-point     6 :       0.3750    0.1250    0.3750
  band No.  band energies     occupation 
      1     -41.4566      2.00000
      2     -41.4566      2.00000
      3     -40.7383      2.00000
      4     -40.7383      2.00000
      5     -40.7379      2.00000
      6     -40.7378      2.00000
      7     -12.2894      2.00000
      8     -12.2577      2.00000
      9      -9.4859      2.00000
     10      -9.4424      2.00000
     11      -9.2425      2.00000
     12      -9.2083      2.00000
     13      -9.0648      2.00000
     14      -9.0459      2.00000
     15      -5.0493      2.00000
     16      -4.9369      2.00000
     17      -2.2732      2.00000
     18      -2.2444      2.00000
     19      -2.0294      2.00000
     20      -1.9386      2.00000
     21      -1.8011      2.00000
     22      -1.7558      2.00000
     23       0.0076      2.00000
     24       0.0313      2.00000
     25       0.2839      2.00000
     26       0.4108      2.00000
     27       0.5360      2.00000
     28       0.6623      2.00000
     29       1.1115      2.00000
     30       1.1773      2.00000
     31       1.4332      2.00000
     32       1.5249      2.00000
     33       1.7460      2.00000
     34       1.7882      2.00000
     35       1.9378      2.00000
     36       2.0382      2.00000
     37       2.5524      2.00000
     38       2.6787      2.00000
     39       5.5851      0.00000
     40       5.7500      0.00000
     41       6.6853      0.00000
     42       6.8333      0.00000
     43       7.0907      0.00000
     44       7.1759      0.00000
     45       7.4989      0.00000
     46       7.6302      0.00000
     47       8.3907      0.00000
     48       8.6883      0.00000

 k-point     7 :       0.1250    0.3750    0.3750
  band No.  band energies     occupation 
      1     -41.4566      2.00000
      2     -41.4566      2.00000
      3     -40.7384      2.00000
      4     -40.7384      2.00000
      5     -40.7377      2.00000
      6     -40.7377      2.00000
      7     -12.2731      2.00000
      8     -12.2271      2.00000
      9      -9.4496      2.00000
     10      -9.4029      2.00000
     11      -9.3295      2.00000
     12      -9.2699      2.00000
     13      -9.1437      2.00000
     14      -9.0969      2.00000
     15      -4.9368      2.00000
     16      -4.7467      2.00000
     17      -2.2376      2.00000
     18      -2.1878      2.00000
     19      -2.1073      2.00000
     20      -2.0385      2.00000
     21      -1.7905      2.00000
     22      -1.6309      2.00000
     23      -0.0423      2.00000
     24       0.2112      2.00000
     25       0.2955      2.00000
     26       0.4562      2.00000
     27       0.6135      2.00000
     28       0.7353      2.00000
     29       0.9064      2.00000
     30       1.0156      2.00000
     31       1.1663      2.00000
     32       1.2913      2.00000
     33       1.6603      2.00000
     34       2.0892      2.00000
     35       2.2280      2.00000
     36       2.3238      2.00000
     37       2.4612      2.00000
     38       2.5401      2.00000
     39       5.5654      0.00000
     40       5.8956      0.00000
     41       6.5004      0.00000
     42       6.7535      0.00000
     43       6.8171      0.00000
     44       6.9654      0.00000
     45       7.1111      0.00000
     46       7.2330      0.00000
     47       8.4957      0.00000
     48       8.8517      0.00000

 k-point     8 :       0.3750    0.3750    0.3750
  band No.  band energies     occupation 
      1     -41.4566      2.00000
      2     -41.4566      2.00000
      3     -40.7383      2.00000
      4     -40.7383      2.00000
      5     -40.7378      2.00000
      6     -40.7378      2.00000
      7     -12.2587      2.00000
      8     -12.2396      2.00000
      9      -9.4367      2.00000
     10      -9.4182      2.00000
     11      -9.3313      2.00000
     12      -9.2984      2.00000
     13      -9.1225      2.00000
     14      -9.0986      2.00000
     15      -4.8568      2.00000
     16      -4.7772      2.00000
     17      -2.2428      2.00000
     18      -2.2103      2.00000
     19      -2.0259      2.00000
     20      -1.9406      2.00000
     21      -1.7961      2.00000
     22      -1.7096      2.00000
     23      -0.1216      2.00000
     24       0.0021      2.00000
     25       0.2770      2.00000
     26       0.3717      2.00000
     27       0.5850      2.00000
     28       0.6345      2.00000
     29       1.0050      2.00000
     30       1.0753      2.00000
     31       1.3280      2.00000
     32       1.3864      2.00000
     33       1.6503      2.00000
     34       1.8928      2.00000
     35       2.2204      2.00000
     36       2.2641      2.00000
     37       2.4998      2.00000
     38       2.5956      2.00000
     39       5.7299      0.00000
     40       5.8932      0.00000
     41       6.6377      0.00000
     42       6.6564      0.00000
     43       6.9677      0.00000
     44       7.1251      0.00000
     45       7.2800      0.00000
     46       7.3928      0.00000
     47       8.5226      0.00000
     48       8.8558      0.00000


--------------------------------------------------------------------------------------------------------


 soft charge-density along one line, spin component           1
         0         1         2         3         4         5         6         7         8         9
 total charge-density along one line
 
 pseudopotential strength for first ion, spin component:           1
 29.988  37.416   0.002  -0.002  -0.000   0.003  -0.004  -0.000
 37.416  46.687   0.002  -0.003  -0.000   0.003  -0.005  -0.000
  0.002   0.002   6.575   0.001   0.000  10.181   0.001   0.000
 -0.002  -0.003   0.001   6.574   0.000   0.001  10.180   0.000
 -0.000  -0.000   0.000   0.000   6.573   0.000   0.000  10.179
  0.003   0.003  10.181   0.001   0.000  15.784   0.001   0.000
 -0.004  -0.005   0.001  10.180   0.000   0.001  15.783   0.000
 -0.000  -0.000   0.000   0.000  10.179   0.000   0.000  15.781
 total augmentation occupancy for first ion, spin component:           1
 11.170  -6.458   0.092  -0.281   0.000  -0.030   0.122   0.000
 -6.458   4.211  -0.073   0.222   0.000   0.020  -0.090   0.000
  0.092  -0.073   4.369   0.068   0.000  -1.465  -0.035   0.000
 -0.281   0.222   0.068   4.523   0.000  -0.035  -1.529   0.000
  0.000   0.000   0.000   0.000   4.249   0.000   0.000  -1.400
 -0.030   0.020  -1.465  -0.035   0.000   0.531   0.016   0.000
  0.122  -0.090  -0.035  -1.529   0.000   0.016   0.559   0.000
  0.000   0.000   0.000   0.000  -1.400   0.000   0.000   0.502


------------------------ aborting loop because EDIFF is reached ----------------------------------------


    CHARGE:  cpu time    0.0172: real time    0.0172
    FORLOC:  cpu time    0.0007: real time    0.0007
    FORNL :  cpu time    0.0358: real time    0.0359
    STRESS:  cpu time    0.1020: real time    0.1029
    FORCOR:  cpu time    0.0036: real time    0.0036
    FORHAR:  cpu time    0.0024: real time    0.0024
    MIXING:  cpu time    0.0006: real time    0.0006
    OFIELD:  cpu time    0.0001: real time    0.0001

  FORCE on cell =-STRESS in cart. coord.  units (eV):
  Direction    XX          YY          ZZ          XY          YZ          ZX
  --------------------------------------------------------------------------------------
  Alpha Z    69.64008    69.64008    69.64008
  Ewald    -927.18234  -985.05886  -828.86391     0.00000     0.00000     0.00000
  Hartree   213.81580   176.00568   263.89527     0.00000    -0.00000    -0.00000
  E(xc)    -277.08676  -277.02371  -277.05132    -0.00000    -0.00000    -0.00000
  Local    -639.51990  -540.54932  -780.38142    -0.00000    -0.00000     0.00000
  n-local   612.11501   611.00582   610.91950    -0.43511     0.05203     0.00435
  augment   -43.15054   -42.85073   -42.40846    -0.00000     0.00000    -0.00000
  Kinetic   990.48496   988.78858   984.20407    -0.02265    -0.12519     0.05001
  Fock        0.00000     0.00000     0.00000     0.00000     0.00000     0.00000
  -------------------------------------------------------------------------------------
  Total      -0.88369    -0.04246    -0.04618     0.00000     0.00000     0.00000
  in kB      -4.99661    -0.24006    -0.26113     0.00000     0.00000     0.00000
  external pressure =       -1.83 kB  Pullay stress =        0.00 kB


 VOLUME and BASIS-vectors are now :
 -----------------------------------------------------------------------------
  energy-cutoff  :      420.00
  volume of cell :      283.36
      direct lattice vectors                 reciprocal lattice vectors
     7.790874658  0.000000000  0.000000000     0.128355293  0.000000000  0.000000000
     0.000000000  6.132408169  0.000000000     0.000000000  0.163068076  0.000000000
[...]
     17      -2.5260      2.00000
     18      -2.3151      2.00000
     19      -2.1969      2.00000
     20      -2.0330      2.00000
     21      -1.8450      2.00000
     22      -1.7200      2.00000
     23      -0.0531      2.00000
     24       0.0700      2.00000
     25       0.3886      2.00000
     26       0.4843      2.00000
     27       0.5802      2.00000
     28       0.8176      2.00000
     29       1.0650      2.00000
     30       1.2278      2.00000
     31       1.5136      2.00000
     32       1.7027      2.00000
     33       1.8343      2.00000
     34       2.0054      2.00000
     35       2.1809      2.00000
     36       2.2870      2.00000
     37       2.4469      2.00000
     38       2.6388      2.00000
     39       5.6205      0.00000
     40       6.1977      0.00000
     41       6.5821      0.00000
     42       6.6235      0.00000
     43       6.9338      0.00000
     44       7.0614      0.00000
     45       7.2055      0.00000
     46       7.5440      0.00000
     47       8.4949      0.00000
     48       8.6049      0.00000

 k-point     4 :       0.3750    0.3750    0.1250
  band No.  band energies     occupation 
      1     -41.3757      2.00000
      2     -41.3757      2.00000
      3     -40.6870      2.00000
      4     -40.6870      2.00000
      5     -40.6864      2.00000
      6     -40.6863      2.00000
      7     -12.2924      2.00000
      8     -12.2485      2.00000
      9      -9.4542      2.00000
     10      -9.4319      2.00000
     11      -9.2352      2.00000
     12      -9.1466      2.00000
     13      -8.9883      2.00000
     14      -8.9441      2.00000
     15      -5.0351      2.00000
     16      -4.8544      2.00000
     17      -2.4395      2.00000
     18      -2.3490      2.00000
     19      -2.1577      2.00000
     20      -2.1108      2.00000
     21      -1.7843      2.00000
     22      -1.7261      2.00000
     23      -0.0197      2.00000
     24       0.0893      2.00000
     25       0.1916      2.00000
     26       0.3997      2.00000
     27       0.6837      2.00000
     28       0.7778      2.00000
     29       0.9506      2.00000
     30       1.1735      2.00000
     31       1.5681      2.00000
     32       1.6693      2.00000
     33       1.8612      2.00000
     34       2.0023      2.00000
     35       2.1614      2.00000
     36       2.2719      2.00000
     37       2.4896      2.00000
     38       2.6261      2.00000
     39       5.8136      0.00000
     40       6.0729      0.00000
     41       6.6815      0.00000
     42       6.7962      0.00000
     43       7.0586      0.00000
     44       7.1883      0.00000
     45       7.4273      0.00000
     46       7.5510      0.00000
     47       8.6155      0.00000
     48       8.6793      0.00000

 k-point     5 :       0.1250    0.1250    0.3750
  band No.  band energies     occupation 
      1     -41.3757      2.00000
      2     -41.3756      2.00000
      3     -40.6871      2.00000
      4     -40.6870      2.00000
      5     -40.6863      2.00000
      6     -40.6862      2.00000
      7     -12.2870      2.00000
      8     -12.2099      2.00000
      9      -9.4463      2.00000
     10      -9.3554      2.00000
     11      -9.2782      2.00000
     12      -9.1630      2.00000
     13      -9.0634      2.00000
     14      -9.0495      2.00000
     15      -5.1079      2.00000
     16      -4.8380      2.00000
     17      -2.2170      2.00000
     18      -2.1146      2.00000
     19      -2.0463      2.00000
     20      -1.9498      2.00000
     21      -1.8903      2.00000
     22      -1.7510      2.00000
     23       0.0205      2.00000
     24       0.0939      2.00000
     25       0.1664      2.00000
     26       0.3453      2.00000
     27       0.4749      2.00000
     28       0.6445      2.00000
     29       1.1079      2.00000
     30       1.3280      2.00000
     31       1.5527      2.00000
     32       1.6701      2.00000
     33       1.7933      2.00000
     34       1.9451      2.00000
     35       2.0956      2.00000
     36       2.2990      2.00000
     37       2.4884      2.00000
     38       2.6705      2.00000
     39       5.4266      0.00000
     40       5.8154      0.00000
     41       6.4644      0.00000
     42       6.6030      0.00000
     43       7.1428      0.00000
     44       7.2696      0.00000
     45       7.4175      0.00000
     46       7.5330      0.00000
     47       8.3337      0.00000
     48       8.6656      0.00000

 k-point     6 :       0.3750    0.1250    0.3750
  band No.  band energies     occupation 
      1     -41.3757      2.00000
      2     -41.3756      2.00000
      3     -40.6870      2.00000
      4     -40.6869      2.00000
      5     -40.6864      2.00000
      6     -40.6863      2.00000
      7     -12.2633      2.00000
      8     -12.2313      2.00000
      9      -9.4740      2.00000
     10      -9.4318      2.00000
     11      -9.2153      2.00000
     12      -9.1803      2.00000
     13      -9.0389      2.00000
     14      -9.0153      2.00000
     15      -5.0297      2.00000
     16      -4.9175      2.00000
     17      -2.2552      2.00000
     18      -2.2220      2.00000
     19      -2.0031      2.00000
     20      -1.9108      2.00000
     21      -1.7766      2.00000
     22      -1.7343      2.00000
     23       0.0242      2.00000
     24       0.0486      2.00000
     25       0.2981      2.00000
     26       0.4269      2.00000
     27       0.5581      2.00000
     28       0.6764      2.00000
     29       1.1119      2.00000
     30       1.1743      2.00000
     31       1.4760      2.00000
     32       1.5606      2.00000
     33       1.7692      2.00000
     34       1.8135      2.00000
     35       1.9623      2.00000
     36       2.0553      2.00000
     37       2.5787      2.00000
     38       2.7010      2.00000
     39       5.6115      0.00000
     40       5.7867      0.00000
     41       6.6999      0.00000
     42       6.8444      0.00000
     43       7.0855      0.00000
     44       7.1909      0.00000
     45       7.5074      0.00000
     46       7.6614      0.00000
     47       8.4377      0.00000
     48       8.7186      0.00000

 k-point     7 :       0.1250    0.3750    0.3750
  band No.  band energies     occupation 
      1     -41.3757      2.00000
      2     -41.3756      2.00000
      3     -40.6871      2.00000
      4     -40.6870      2.00000
      5     -40.6863      2.00000
      6     -40.6863      2.00000
      7     -12.2471      2.00000
      8     -12.2006      2.00000
      9      -9.4396      2.00000
     10      -9.3956      2.00000
     11      -9.2959      2.00000
     12      -9.2404      2.00000
     13      -9.1212      2.00000
     14      -9.0658      2.00000
     15      -4.9201      2.00000
     16      -4.7301      2.00000
     17      -2.2115      2.00000
     18      -2.1697      2.00000
     19      -2.0725      2.00000
     20      -2.0060      2.00000
     21      -1.7624      2.00000
     22      -1.6144      2.00000
     23      -0.0277      2.00000
     24       0.2205      2.00000
     25       0.3000      2.00000
     26       0.4663      2.00000
     27       0.6281      2.00000
     28       0.7453      2.00000
     29       0.9487      2.00000
     30       1.0425      2.00000
     31       1.1811      2.00000
     32       1.3177      2.00000
     33       1.6879      2.00000
     34       2.1032      2.00000
     35       2.2510      2.00000
     36       2.3546      2.00000
     37       2.4890      2.00000
     38       2.5488      2.00000
     39       5.5752      0.00000
     40       5.9139      0.00000
     41       6.5324      0.00000
     42       6.7841      0.00000
     43       6.8219      0.00000
     44       6.9961      0.00000
     45       7.1346      0.00000
     46       7.2528      0.00000
     47       8.5245      0.00000
     48       8.7008      0.00000

 k-point     8 :       0.3750    0.3750    0.3750
  band No.  band energies     occupation 
      1     -41.3757      2.00000
      2     -41.3756      2.00000
      3     -40.6870      2.00000
      4     -40.6870      2.00000
      5     -40.6864      2.00000
      6     -40.6864      2.00000
      7     -12.2323      2.00000
      8     -12.2131      2.00000
      9      -9.4264      2.00000
     10      -9.4091      2.00000
     11      -9.3023      2.00000
     12      -9.2691      2.00000
     13      -9.0971      2.00000
     14      -9.0696      2.00000
     15      -4.8377      2.00000
     16      -4.7580      2.00000
     17      -2.2157      2.00000
     18      -2.1790      2.00000
     19      -2.0000      2.00000
     20      -1.9142      2.00000
     21      -1.7648      2.00000
     22      -1.6863      2.00000
     23      -0.1025      2.00000
     24       0.0217      2.00000
     25       0.2795      2.00000
     26       0.3692      2.00000
     27       0.5881      2.00000
     28       0.6351      2.00000
     29       1.0361      2.00000
     30       1.1123      2.00000
     31       1.3412      2.00000
     32       1.4070      2.00000
     33       1.6765      2.00000
     34       1.9087      2.00000
     35       2.2516      2.00000
     36       2.2896      2.00000
     37       2.5157      2.00000
     38       2.6111      2.00000
     39       5.7428      0.00000
     40       5.9052      0.00000
     41       6.6678      0.00000
     42       6.6868      0.00000
     43       7.0070      0.00000
     44       7.1412      0.00000
     45       7.3098      0.00000
     46       7.4092      0.00000
     47       8.5595      0.00000
     48       8.7208      0.00000


--------------------------------------------------------------------------------------------------------


 soft charge-density along one line, spin component           1
         0         1         2         3         4         5         6         7         8         9
 total charge-density along one line
 
 pseudopotential strength for first ion, spin component:           1
 29.984  37.410   0.002  -0.001  -0.000   0.002  -0.002  -0.000
 37.410  46.680   0.002  -0.002  -0.000   0.003  -0.003  -0.000
  0.002   0.002   6.574   0.001   0.000  10.180   0.001   0.000
 -0.001  -0.002   0.001   6.574   0.000   0.001  10.179   0.000
 -0.000  -0.000   0.000   0.000   6.573   0.000   0.000  10.178
  0.002   0.003  10.180   0.001   0.000  15.782   0.001   0.000
 -0.002  -0.003   0.001  10.179   0.000   0.001  15.781   0.000
 -0.000  -0.000   0.000   0.000  10.178   0.000   0.000  15.779
 total augmentation occupancy for first ion, spin component:           1
 11.136  -6.435   0.112  -0.278   0.000  -0.038   0.124   0.000
 -6.435   4.196  -0.088   0.218   0.000   0.026  -0.091   0.000
  0.112  -0.088   4.348   0.078   0.000  -1.455  -0.039   0.000
 -0.278   0.218   0.078   4.537   0.000  -0.039  -1.536   0.000
  0.000   0.000   0.000   0.000   4.226   0.000   0.000  -1.389
 -0.038   0.026  -1.455  -0.039   0.000   0.526   0.018   0.000
  0.124  -0.091  -0.039  -1.536   0.000   0.018   0.562   0.000
  0.000   0.000   0.000   0.000  -1.389   0.000   0.000   0.497


------------------------ aborting loop because EDIFF is reached ----------------------------------------


    CHARGE:  cpu time    0.0180: real time    0.0180
    FORLOC:  cpu time    0.0007: real time    0.0007
    FORNL :  cpu time    0.0351: real time    0.0351
    STRESS:  cpu time    0.1031: real time    0.1031
    FORCOR:  cpu time    0.0029: real time    0.0029
    FORHAR:  cpu time    0.0023: real time    0.0023
    MIXING:  cpu time    0.0003: real time    0.0003
    OFIELD:  cpu time    0.0000: real time    0.0000

  FORCE on cell =-STRESS in cart. coord.  units (eV):
  Direction    XX          YY          ZZ          XY          YZ          ZX
  --------------------------------------------------------------------------------------
  Alpha Z    69.93828    69.93828    69.93828
  Ewald    -926.99524  -993.57583  -825.35981     0.00000     0.00000     0.00000
  Hartree   214.30292   173.59074   263.64062     0.00000    -0.00000    -0.00000
  E(xc)    -277.17200  -277.09767  -277.14401    -0.00000    -0.00000    -0.00000
  Local    -640.75774  -530.43497  -783.12931    -0.00000    -0.00000     0.00000
  n-local   610.98359   609.73036   610.18539    -0.44396     0.05016     0.00237
  augment   -43.55466   -43.22052   -42.69039     0.00000     0.00000    -0.00000
  Kinetic   993.28404   991.07561   984.55030    -0.01711    -0.11710     0.05326
  Fock        0.00000     0.00000     0.00000     0.00000     0.00000     0.00000
  -------------------------------------------------------------------------------------
  Total       0.02919     0.00601    -0.00891     0.00000     0.00000     0.00000
  in kB       0.16577     0.03411    -0.05060     0.00000     0.00000     0.00000
  external pressure =        0.05 kB  Pullay stress =        0.00 kB


 VOLUME and BASIS-vectors are now :
 -----------------------------------------------------------------------------
  energy-cutoff  :      420.00
  volume of cell :      282.15
      direct lattice vectors                 reciprocal lattice vectors
     7.745291642  0.000000000  0.000000000     0.129110697  0.000000000  0.000000000
     0.000000000  6.139375768  0.000000000     0.000000000  0.162883009  0.000000000
     0.000000000  0.000000000  5.933558877     0.000000000  0.000000000  0.168532919

  length of vectors
     7.745291642  6.139375768  5.933558877     0.129110697  0.162883009  0.168532919


 FORCES acting on ions
    electron-ion (+dipol)            ewald-force                    non-local-force                 convergence-correction
 -----------------------------------------------------------------------------------------------
   0.224E-10 -.116E+02 -.176E+02   0.315E-09 0.113E+02 0.176E+02   0.000E+00 0.238E+00 -.134E-02   0.153E-12 -.219E-02 -.433E-02
   -.417E-09 0.116E+02 -.176E+02   -.934E-10 -.113E+02 0.176E+02   0.000E+00 -.238E+00 -.134E-02   0.168E-12 0.219E-02 -.433E-02
   -.682E+02 0.830E+01 0.848E+01   0.693E+02 -.965E+01 -.101E+02   -.110E+01 0.134E+01 0.158E+01   -.322E-02 0.525E-02 0.120E-02
   0.682E+02 -.830E+01 0.848E+01   -.693E+02 0.965E+01 -.101E+02   0.110E+01 -.134E+01 0.158E+01   0.322E-02 -.525E-02 0.120E-02
   -.682E+02 -.830E+01 0.848E+01   0.693E+02 0.965E+01 -.101E+02   -.110E+01 -.134E+01 0.158E+01   -.322E-02 -.525E-02 0.120E-02
   0.682E+02 0.830E+01 0.848E+01   -.693E+02 -.965E+01 -.101E+02   0.110E+01 0.134E+01 0.158E+01   0.322E-02 0.525E-02 0.120E-02
   -.110E-10 -.558E+02 0.484E+02   0.249E-09 0.573E+02 -.489E+02   0.000E+00 -.147E+01 0.536E+00   0.117E-12 0.191E-02 -.733E-04
   -.108E-08 0.558E+02 0.484E+02   -.146E-09 -.573E+02 -.489E+02   0.000E+00 0.147E+01 0.536E+00   -.156E-12 -.191E-02 -.733E-04
   -.185E-10 -.459E+02 -.497E+02   0.281E-09 0.478E+02 0.520E+02   0.000E+00 -.196E+01 -.233E+01   0.162E-12 0.338E-05 0.225E-02
   -.106E-08 0.459E+02 -.497E+02   -.138E-09 -.478E+02 0.520E+02   0.000E+00 0.196E+01 -.233E+01   0.241E-12 -.338E-05 0.225E-02
   0.125E-10 0.276E+02 0.158E+02   0.186E-09 -.267E+02 -.156E+02   0.000E+00 -.861E+00 -.242E+00   -.165E-12 -.691E-03 -.384E-03
   -.686E-09 -.276E+02 0.158E+02   -.624E-10 0.267E+02 -.156E+02   0.000E+00 0.861E+00 -.242E+00   -.343E-13 0.691E-03 -.384E-03
   -.936E+01 -.201E+02 -.825E+01   0.948E+01 0.194E+02 0.750E+01   -.124E+00 0.611E+00 0.745E+00   0.375E-03 0.355E-02 -.177E-02
   0.936E+01 0.201E+02 -.825E+01   -.948E+01 -.194E+02 0.750E+01   0.124E+00 -.611E+00 0.745E+00   -.375E-03 -.355E-02 -.177E-02
   -.936E+01 0.201E+02 -.825E+01   0.948E+01 -.194E+02 0.750E+01   -.124E+00 -.611E+00 0.745E+00   0.375E-03 -.355E-02 -.177E-02
   0.936E+01 -.201E+02 -.825E+01   -.948E+01 0.194E+02 0.750E+01   0.124E+00 0.611E+00 0.745E+00   -.375E-03 0.355E-02 -.177E-02
 -----------------------------------------------------------------------------------------------
   -.101E-07 -.225E-07 -.523E+01   -.444E-13 0.320E-13 -.266E-14   0.278E-16 0.333E-15 0.523E+01   0.934E-12 -.448E-12 -.736E-02
 
 
 POSITION                                       TOTAL-FORCE (eV/Angst)
 -----------------------------------------------------------------------------------
      0.00000      4.73835      2.47293         0.000000     -0.008652     -0.007245
      3.87265      1.40103      5.43971         0.000000      0.008652     -0.007245
      1.62031      3.70771      1.77334        -0.002586      0.003449     -0.002350
      2.25233      2.43167      4.74012         0.002586     -0.003449     -0.002350
      5.49296      2.43167      4.74012        -0.002586     -0.003449     -0.002350
      6.12498      3.70771      1.77334         0.002586      0.003449     -0.002350
      0.00000      0.40588      1.54829         0.000000     -0.000398      0.014357
      3.87265      5.73349      4.51507         0.000000      0.000398      0.014357
      0.00000      4.99731      4.48755         0.000000     -0.018392      0.001120
      3.87265      1.14207      1.52077         0.000000      0.018392      0.001120
      0.00000      2.67593      0.03440         0.000000      0.004227      0.001547
      3.87265      3.46345      3.00118         0.000000     -0.004227      0.001547
      2.07468      4.72874      5.60993        -0.004239      0.002170     -0.002540
      1.79797      1.41063      2.64315         0.004239     -0.002170     -0.002540
      5.94733      1.41063      2.64315        -0.004239     -0.002170     -0.002540
      5.67061      4.72874      5.60993         0.004239      0.002170     -0.002540
 -----------------------------------------------------------------------------------
    total drift:                               -0.000000     -0.000000     -0.014061


--------------------------------------------------------------------------------------------------------



  FREE ENERGIE OF THE ION-ELECTRON SYSTEM (eV)
  ---------------------------------------------------
  free  energy   TOTEN  =       -76.86953338 eV

  energy  without entropy=      -76.86953338  energy(sigma->0) =      -76.86953338
 
 d Force = 0.3438961E-05[-0.311E-04, 0.380E-04]  d Energy = 0.1169536E-04-0.826E-05
 d Force = 0.2075560E+00[ 0.207E+00, 0.208E+00]  d Ewald  =-0.2444916E+00 0.452E+00


--------------------------------------------------------------------------------------------------------


    POTLOK:  cpu time    0.0039: real time    0.0039


--------------------------------------------------------------------------------------------------------




--------------------------------------------------------------------------------------------------------


  
 reached required accuracy - stopping structural energy minimisation
     LOOP+:  cpu time    0.6979: real time    0.7037
    4ORBIT:  cpu time    0.0000: real time    0.0000
 BZINTS: Fermi energy:  2.821932; 76.000000 electrons
         Band energy:-653.537413;  BLOECHL correction:  0.000000

 total amount of memory used by VASP MPI-rank0    33603. kBytes
=======================================================================

   base      :      30000. kBytes
   nonlr-proj:       1232. kBytes
   fftplans  :        656. kBytes
   grid      :       1147. kBytes
   one-center:          3. kBytes
   wavefun   :        565. kBytes
 
  
  
 General timing and accounting informations for this job:
 ========================================================
  
                  Total CPU time used (sec):       17.544
                            User time (sec):       17.159
                          System time (sec):        0.384
                         Elapsed time (sec):       18.920
  
                   Maximum memory used (kb):      148940.
                   Average memory used (kb):           0.
  
                          Minor page faults:        32490
                          Major page faults:           88
                 Voluntary context switches:         2383
