<?xml version="1.0" encoding="ISO-8859-1"?>
<modeling>
 <generator>
  <i name="program" type="string">vasp </i>
  <i name="version" type="string">5.4.4.18Apr17-6-g9f103f2a35  </i>
  <i name="subversion" type="string">(build Feb 28 2020 14:15:47) complex            parallel </i>
  <i name="platform" type="string">LinuxIFC </i>
  <i name="date" type="string">2022 08 07 </i>
  <i name="time" type="string">09:22:21 </i>
 </generator>
 <incar>
  <i type="int" name="ISTART">     0</i>
  <i type="string" name="PREC">accurate</i>
  <i type="string" name="ALGO"> FAST</i>
  <i type="int" name="ISPIN">     1</i>
  <i type="int" name="ICHARG">     2</i>
  <i type="int" name="INIWAV">     1</i>
  <i type="int" name="NELM">   100</i>
  <i type="int" name="IBRION">     2</i>
  <i name="EDIFF">      0.00002000</i>
  <i name="EDIFFG">      0.00020000</i>
  <i type="int" name="NSW">   100</i>
  <i type="int" name="ISIF">     3</i>
  <i name="ENCUT">    420.00000000</i>
  <i type="string" name="LREAL"> AUTO</i>
  <i type="int" name="ISMEAR">    -5</i>
  <i type="logical" name="LWAVE"> F  </i>
  <i type="logical" name="LCHARG"> F  </i>
  <v type="int" name="KPOINT_BSE">    -1     0     0     0</v>
  <i type="int" name="NELM">   100</i>
 </incar>
 <structure name="primitive_cell" >
  <crystal>
   <varray name="basis" >
    <v>       7.79087466       0.00000000       0.00000000 </v>
    <v>       0.00000000       6.13240817       0.00000000 </v>
    <v>       0.00000000       0.00000000       5.93083242 </v>
   </varray>
   <i name="volume">    283.35633297 </i>
   <varray name="rec_basis" >
    <v>       0.12835529       0.00000000       0.00000000 </v>
    <v>       0.00000000       0.16306808       0.00000000 </v>
    <v>       0.00000000       0.00000000       0.16861040 </v>
   </varray>
  </crystal>
  <varray name="positions" >
   <v>       0.00000000      -0.22861876       0.41675780 </v>
   <v>       0.00000000       0.06371228       0.25684882 </v>
   <v>       0.00000000      -0.18235869      -0.24388236 </v>
   <v>      -0.20831662      -0.39859979       0.30383537 </v>
   <v>       0.20831662      -0.39859979       0.30383537 </v>
   <v>       0.00000000       0.43426565       0.00404234 </v>
   <v>      -0.23340491       0.23195986       0.44350607 </v>
   <v>       0.23340491       0.23195986       0.44350607 </v>
   <v>      -0.26659509      -0.23195986      -0.05649393 </v>
   <v>       0.26659509      -0.23195986      -0.05649393 </v>
   <v>      -0.29168338       0.39859979      -0.19616463 </v>
   <v>       0.29168338       0.39859979      -0.19616463 </v>
   <v>      -0.50000000      -0.43426565      -0.49595766 </v>
   <v>      -0.50000000      -0.06371228      -0.24315118 </v>
   <v>      -0.50000000       0.18235869       0.25611764 </v>
   <v>      -0.50000000       0.22861876      -0.08324220 </v>
  </varray>
 </structure>
 <varray name="primitive_index" >
  <v type="int" >        1 </v>
  <v type="int" >        7 </v>
  <v type="int" >        9 </v>
  <v type="int" >        6 </v>
  <v type="int" >        3 </v>
  <v type="int" >       11 </v>
  <v type="int" >       15 </v>
  <v type="int" >       14 </v>
  <v type="int" >       16 </v>
  <v type="int" >       13 </v>
  <v type="int" >        5 </v>
  <v type="int" >        4 </v>
  <v type="int" >       12 </v>
  <v type="int" >        8 </v>
  <v type="int" >       10 </v>
  <v type="int" >        2 </v>
 </varray>
 <kpoints>
  <generation param="Monkhorst-Pack">
   <v type="int" name="divisions">       4        4        4 </v>
   <v name="usershift">      0.00000000       0.00000000       0.00000000 </v>
   <v name="genvec1">      0.25000000       0.00000000       0.00000000 </v>
   <v name="genvec2">      0.00000000       0.25000000       0.00000000 </v>
   <v name="genvec3">      0.00000000       0.00000000       0.25000000 </v>
   <v name="shift">      0.50000000       0.50000000       0.50000000 </v>
  </generation>
  <varray name="kpointlist" >
   <v>       0.12500000       0.12500000       0.12500000 </v>
   <v>       0.37500000       0.12500000       0.12500000 </v>
   <v>       0.12500000       0.37500000       0.12500000 </v>
   <v>       0.37500000       0.37500000       0.12500000 </v>
   <v>       0.12500000       0.12500000       0.37500000 </v>
   <v>       0.37500000       0.12500000       0.37500000 </v>
   <v>       0.12500000       0.37500000       0.37500000 </v>
   <v>       0.37500000       0.37500000       0.37500000 </v>
  </varray>
  <varray name="weights" >
   <v>       0.12500000 </v>
   <v>       0.12500000 </v>
   <v>       0.12500000 </v>
   <v>       0.12500000 </v>
   <v>       0.12500000 </v>
   <v>       0.12500000 </v>
   <v>       0.12500000 </v>
   <v>       0.12500000 </v>
  </varray>
  <varray name="tetrahedronlist"  type="int" >
   <v type="int" >        2        1        2        4        5 </v>
   <v type="int" >        2        1        3        4        5 </v>
   <v type="int" >        2        3        4        5        7 </v>
   <v type="int" >        2        2        4        5        6 </v>
   <v type="int" >        2        4        5        6        8 </v>
   <v type="int" >        2        4        5        7        8 </v>
   <v type="int" >        2        2        2        4        6 </v>
   <v type="int" >        2        2        4        4        6 </v>
   <v type="int" >        2        4        4        6        8 </v>
   <v type="int" >        2        2        4        6        6 </v>
   <v type="int" >        2        4        6        6        8 </v>
   <v type="int" >        2        4        6        8        8 </v>
   <v type="int" >        2        1        2        3        6 </v>
   <v type="int" >        2        2        3        4        6 </v>
   <v type="int" >        2        3        4        6        8 </v>
   <v type="int" >        2        1        3        5        6 </v>
   <v type="int" >        2        3        5        6        7 </v>
   <v type="int" >        2        3        6        7        8 </v>
   <v type="int" >        2        1        1        3        5 </v>
   <v type="int" >        2        1        3        3        5 </v>
   <v type="int" >        2        3        3        5        7 </v>
   <v type="int" >        2        1        3        5        5 </v>
   <v type="int" >        2        3        5        5        7 </v>
   <v type="int" >        2        3        5        7        7 </v>
   <v type="int" >        2        3        4        4        7 </v>
   <v type="int" >        2        3        3        4        7 </v>
   <v type="int" >        2        3        4        7        7 </v>
   <v type="int" >        2        4        4        7        8 </v>
   <v type="int" >        2        4        7        8        8 </v>
   <v type="int" >        2        4        7        7        8 </v>
   <v type="int" >        4        4        4        4        8 </v>
   <v type="int" >        4        4        4        8        8 </v>
   <v type="int" >        4        4        8        8        8 </v>
   <v type="int" >        2        3        3        4        8 </v>
   <v type="int" >        2        3        4        4        8 </v>
   <v type="int" >        2        3        4        8        8 </v>
   <v type="int" >        2        3        3        7        8 </v>
   <v type="int" >        2        3        7        7        8 </v>
   <v type="int" >        2        3        7        8        8 </v>
   <v type="int" >        4        3        3        3        7 </v>
   <v type="int" >        4        3        3        7        7 </v>
   <v type="int" >        4        3        7        7        7 </v>
   <v type="int" >        2        2        3        4        7 </v>
   <v type="int" >        2        1        2        3        7 </v>
   <v type="int" >        2        1        2        5        7 </v>
   <v type="int" >        2        2        4        7        8 </v>
   <v type="int" >        2        2        6        7        8 </v>
   <v type="int" >        2        2        5        6        7 </v>
   <v type="int" >        2        2        4        4        8 </v>
   <v type="int" >        2        2        2        4        8 </v>
   <v type="int" >        2        2        2        6        8 </v>
   <v type="int" >        2        2        4        8        8 </v>
   <v type="int" >        2        2        6        8        8 </v>
   <v type="int" >        2        2        6        6        8 </v>
   <v type="int" >        2        1        3        4        8 </v>
   <v type="int" >        2        1        2        4        8 </v>
   <v type="int" >        2        1        2        6        8 </v>
   <v type="int" >        2        1        3        7        8 </v>
   <v type="int" >        2        1        5        7        8 </v>
   <v type="int" >        2        1        5        6        8 </v>
   <v type="int" >        2        1        3        3        7 </v>
   <v type="int" >        2        1        1        3        7 </v>
   <v type="int" >        2        1        1        5        7 </v>
   <v type="int" >        2        1        3        7        7 </v>
   <v type="int" >        2        1        5        7        7 </v>
   <v type="int" >        2        1        5        5        7 </v>
   <v type="int" >        2        1        2        2        5 </v>
   <v type="int" >        2        1        1        2        5 </v>
   <v type="int" >        2        1        2        5        5 </v>
   <v type="int" >        2        2        2        5        6 </v>
   <v type="int" >        2        2        5        6        6 </v>
   <v type="int" >        2        2        5        5        6 </v>
   <v type="int" >        4        2        2        2        6 </v>
   <v type="int" >        4        2        2        6        6 </v>
   <v type="int" >        4        2        6        6        6 </v>
   <v type="int" >        2        1        1        2        6 </v>
   <v type="int" >        2        1        2        2        6 </v>
   <v type="int" >        2        1        2        6        6 </v>
   <v type="int" >        2        1        1        5        6 </v>
   <v type="int" >        2        1        5        5        6 </v>
   <v type="int" >        2        1        5        6        6 </v>
   <v type="int" >        4        1        1        1        5 </v>
   <v type="int" >        4        1        1        5        5 </v>
   <v type="int" >        4        1        5        5        5 </v>
   <v type="int" >        2        5        5        6        8 </v>
   <v type="int" >        2        5        5        7        8 </v>
   <v type="int" >        2        5        7        7        8 </v>
   <v type="int" >        2        5        6        6        8 </v>
   <v type="int" >        2        5        6        8        8 </v>
   <v type="int" >        2        5        7        8        8 </v>
   <v type="int" >        4        6        6        6        8 </v>
   <v type="int" >        4        6        6        8        8 </v>
   <v type="int" >        4        6        8        8        8 </v>
   <v type="int" >        2        5        6        6        7 </v>
   <v type="int" >        2        6        6        7        8 </v>
   <v type="int" >        2        6        7        8        8 </v>
   <v type="int" >        2        5        5        6        7 </v>
   <v type="int" >        2        5        6        7        7 </v>
   <v type="int" >        2        6        7        7        8 </v>
   <v type="int" >        4        5        5        5        7 </v>
   <v type="int" >        4        5        5        7        7 </v>
   <v type="int" >        4        5        7        7        7 </v>
   <v type="int" >        4        7        7        8        8 </v>
   <v type="int" >        4        7        7        7        8 </v>
   <v type="int" >        4        7        8        8        8 </v>
   <v type="int" >        6        8        8        8        8 </v>
   <v type="int" >        6        7        7        7        7 </v>
   <v type="int" >        4        5        5        6        6 </v>
   <v type="int" >        4        5        5        5        6 </v>
   <v type="int" >        4        5        6        6        6 </v>
   <v type="int" >        6        6        6        6        6 </v>
   <v type="int" >        6        5        5        5        5 </v>
   <v type="int" >        2        1        1        2        4 </v>
   <v type="int" >        2        1        1        3        4 </v>
   <v type="int" >        2        1        3        3        4 </v>
   <v type="int" >        2        1        2        2        4 </v>
   <v type="int" >        2        1        2        4        4 </v>
   <v type="int" >        2        1        3        4        4 </v>
   <v type="int" >        4        2        2        2        4 </v>
   <v type="int" >        4        2        2        4        4 </v>
   <v type="int" >        4        2        4        4        4 </v>
   <v type="int" >        2        1        2        2        3 </v>
   <v type="int" >        2        2        2        3        4 </v>
   <v type="int" >        2        2        3        4        4 </v>
   <v type="int" >        2        1        1        2        3 </v>
   <v type="int" >        2        1        2        3        3 </v>
   <v type="int" >        2        2        3        3        4 </v>
   <v type="int" >        4        1        1        1        3 </v>
   <v type="int" >        4        1        1        3        3 </v>
   <v type="int" >        4        1        3        3        3 </v>
   <v type="int" >        4        3        3        4        4 </v>
   <v type="int" >        4        3        3        3        4 </v>
   <v type="int" >        4        3        4        4        4 </v>
   <v type="int" >        6        4        4        4        4 </v>
   <v type="int" >        6        3        3        3        3 </v>
   <v type="int" >        4        1        1        2        2 </v>
   <v type="int" >        4        1        1        1        2 </v>
   <v type="int" >        4        1        2        2        2 </v>
   <v type="int" >        6        2        2        2        2 </v>
   <v type="int" >        6        1        1        1        1 </v>
  </varray>
  <i name="volumeweight">      0.00260417 </i>
 </kpoints>
 <parameters>
  <separator name="general" >
   <i type="string" name="SYSTEM">unknown system</i>
   <i type="logical" name="LCOMPAT"> F  </i>
  </separator>
  <separator name="electronic" >
   <i type="string" name="PREC">accura</i>
   <i name="ENMAX">    420.00000000</i>
   <i name="ENAUG">    628.94500000</i>
   <i name="EDIFF">      0.00002000</i>
   <i type="int" name="IALGO">    68</i>
   <i type="int" name="IWAVPR">    11</i>
   <i type="int" name="NBANDS">    48</i>
   <i name="NELECT">     76.00000000</i>
   <i type="int" name="TURBO">     0</i>
   <i type="int" name="IRESTART">     0</i>
   <i type="int" name="NREBOOT">     0</i>
   <i type="int" name="NMIN">     0</i>
   <i name="EREF">      0.00000000</i>
   <separator name="electronic smearing" >
    <i type="int" name="ISMEAR">    -5</i>
    <i name="SIGMA">      0.20000000</i>
    <i name="KSPACING">      0.50000000</i>
    <i type="logical" name="KGAMMA"> T  </i>
   </separator>
   <separator name="electronic projectors" >
    <i type="logical" name="LREAL"> T  </i>
    <v name="ROPT">     -0.00025000     -0.00025000     -0.00025000</v>
    <i type="int" name="LMAXPAW">  -100</i>
    <i type="int" name="LMAXMIX">     2</i>
    <i type="logical" name="NLSPLINE"> F  </i>
   </separator>
   <separator name="electronic startup" >
    <i type="int" name="ISTART">     0</i>
    <i type="int" name="ICHARG">     2</i>
    <i type="int" name="INIWAV">     1</i>
   </separator>
   <separator name="electronic spin" >
    <i type="int" name="ISPIN">     1</i>
    <i type="logical" name="LNONCOLLINEAR"> F  </i>
    <v name="MAGMOM">      1.00000000      1.00000000      1.00000000      1.00000000      1.00000000      1.00000000      1.00000000      1.00000000      1.00000000      1.00000000      1.00000000      1.00000000      1.00000000      1.00000000      1.00000000      1.00000000</v>
    <i name="NUPDOWN">     -1.00000000</i>
    <i type="logical" name="LSORBIT"> F  </i>
    <v name="SAXIS">      0.00000000      0.00000000      1.00000000</v>
    <i type="logical" name="LSPIRAL"> F  </i>
    <v name="QSPIRAL">      0.00000000      0.00000000      0.00000000</v>
    <i type="logical" name="LZEROZ"> F  </i>
   </separator>
   <separator name="electronic exchange-correlation" >
    <i type="logical" name="LASPH"> F  </i>
    <i type="logical" name="LMETAGGA"> F  </i>
   </separator>
   <separator name="electronic convergence" >
    <i type="int" name="NELM">   100</i>
    <i type="int" name="NELMDL">    -5</i>
    <i type="int" name="NELMIN">     2</i>
    <i name="ENINI">    420.00000000</i>
    <separator name="electronic convergence detail" >
     <i type="logical" name="LDIAG"> T  </i>
     <i type="logical" name="LSUBROT"> F  </i>
     <i name="WEIMIN">      0.00100000</i>
     <i name="EBREAK">      0.00000010</i>
     <i name="DEPER">      0.30000000</i>
     <i type="int" name="NRMM">     4</i>
     <i name="TIME">      0.40000000</i>
    </separator>
   </separator>
   <separator name="electronic mixer" >
    <i name="AMIX">      0.40000000</i>
    <i name="BMIX">      1.00000000</i>
    <i name="AMIN">      0.10000000</i>
    <i name="AMIX_MAG">      1.60000000</i>
    <i name="BMIX_MAG">      1.00000000</i>
    <separator name="electronic mixer details" >
     <i type="int" name="IMIX">     4</i>
     <i type="logical" name="MIXFIRST"> F  </i>
     <i type="int" name="MAXMIX">   -45</i>
     <i name="WC">    100.00000000</i>
     <i type="int" name="INIMIX">     1</i>
     <i type="int" name="MIXPRE">     1</i>
     <i type="int" name="MREMOVE">     5</i>
    </separator>
   </separator>
   <separator name="electronic dipolcorrection" >
    <i type="logical" name="LDIPOL"> F  </i>
    <i type="logical" name="LMONO"> F  </i>
    <i type="int" name="IDIPOL">     0</i>
    <i name="EPSILON">      1.00000000</i>
    <v name="DIPOL">   -100.00000000   -100.00000000   -100.00000000</v>
    <i name="EFIELD">      0.00000000</i>
   </separator>
  </separator>
  <separator name="grids" >
   <i type="int" name="NGX">    54</i>
   <i type="int" name="NGY">    42</i>
   <i type="int" name="NGZ">    40</i>
   <i type="int" name="NGXF">   108</i>
   <i type="int" name="NGYF">    84</i>
   <i type="int" name="NGZF">    80</i>
   <i type="logical" name="ADDGRID"> F  </i>
  </separator>
  <separator name="ionic" >
   <i type="int" name="NSW">   100</i>
   <i type="int" name="IBRION">     2</i>
   <i type="int" name="MDALGO">     0</i>
   <i type="int" name="ISIF">     3</i>
   <i name="PSTRESS">      0.00000000</i>
   <i name="EDIFFG">      0.00020000</i>
   <i type="int" name="NFREE">     1</i>
   <i name="POTIM">      0.50000000</i>
   <i name="SMASS">     -3.00000000</i>
   <i name="SCALEE">      1.00000000</i>
  </separator>
  <separator name="ionic md" >
   <i name="TEBEG">      0.00010000</i>
   <i name="TEEND">      0.00010000</i>
   <i type="int" name="NBLOCK">     1</i>
   <i type="int" name="KBLOCK">   100</i>
   <i type="int" name="NPACO">   256</i>
   <i name="APACO">     16.00000000</i>
  </separator>
  <separator name="symmetry" >
   <i type="int" name="ISYM">     2</i>
   <i name="SYMPREC">      0.00001000</i>
  </separator>
  <separator name="dos" >
   <i type="int" name="LORBIT">     0</i>
   <v name="RWIGS">     -1.00000000     -1.00000000     -1.00000000</v>
   <i type="int" name="NEDOS">   301</i>
   <i name="EMIN">     10.00000000</i>
   <i name="EMAX">    -10.00000000</i>
   <i name="EFERMI">      0.00000000</i>
  </separator>
  <separator name="writing" >
   <i type="int" name="NWRITE">     2</i>
   <i type="logical" name="LWAVE"> F  </i>
   <i type="logical" name="LDOWNSAMPLE"> F  </i>
   <i type="logical" name="LCHARG"> F  </i>
   <i type="logical" name="LPARD"> F  </i>
   <i type="logical" name="LVTOT"> F  </i>
   <i type="logical" name="LVHAR"> F  </i>
   <i type="logical" name="LELF"> F  </i>
   <i type="logical" name="LOPTICS"> F  </i>
   <v name="STM">      0.00000000      0.00000000      0.00000000      0.00000000      0.00000000      0.00000000      0.00000000</v>
  </separator>
  <separator name="performance" >
   <i type="int" name="NPAR">     4</i>
   <i type="int" name="NSIM">     4</i>
   <i type="int" name="NBLK">    -1</i>
   <i type="logical" name="LPLANE"> T  </i>
   <i type="logical" name="LSCALAPACK"> T  </i>
   <i type="logical" name="LSCAAWARE"> F  </i>
   <i type="logical" name="LSCALU"> F  </i>
   <i type="logical" name="LASYNC"> F  </i>
   <i type="logical" name="LORBITALREAL"> F  </i>
  </separator>
  <separator name="miscellaneous" >
   <i type="int" name="IDIOT">     3</i>
   <i type="int" name="ISPECIAL">     0</i>
   <i type="logical" name="LMUSIC"> F  </i>
   <v name="POMASS">     30.97400000     32.06600000      7.01000000</v>
   <v name="DARWINR">      0.00000000      0.00000000      0.00000000</v>
   <v name="DARWINV">      1.00000000      1.00000000      1.00000000</v>
   <i type="logical" name="LCORR"> T  </i>
  </separator>
  <i type="logical" name="GGA_COMPAT"> T  </i>
  <i type="logical" name="LBERRY"> F  </i>
  <i type="int" name="ICORELEVEL">     0</i>
  <i type="logical" name="LDAU"> F  </i>
  <i type="int" name="I_CONSTRAINED_M">     0</i>
  <separator name="electronic exchange-correlation" >
   <i type="string" name="GGA">--</i>
   <i type="int" name="VOSKOWN">     0</i>
   <i type="logical" name="LHFCALC"> F  </i>
   <i type="string" name="PRECFOCK"></i>
   <i type="logical" name="LSYMGRAD"> F  </i>
   <i type="logical" name="LHFONE"> F  </i>
   <i type="logical" name="LRHFCALC"> F  </i>
   <i type="logical" name="LTHOMAS"> F  </i>
   <i type="logical" name="LMODELHF"> F  </i>
   <i name="ENCUT4O">     -1.00000000</i>
   <i type="int" name="EXXOEP">     0</i>
   <i type="int" name="FOURORBIT">     0</i>
   <i name="AEXX">      0.00000000</i>
   <i name="HFALPHA">      0.00000000</i>
   <i name="MCALPHA">      0.00000000</i>
   <i name="ALDAX">      1.00000000</i>
   <i name="AGGAX">      1.00000000</i>
   <i name="ALDAC">      1.00000000</i>
   <i name="AGGAC">      1.00000000</i>
   <i type="int" name="NKREDX">     1</i>
   <i type="int" name="NKREDY">     1</i>
   <i type="int" name="NKREDZ">     1</i>
   <i type="logical" name="SHIFTRED"> F  </i>
   <i type="logical" name="ODDONLY"> F  </i>
   <i type="logical" name="EVENONLY"> F  </i>
   <i type="int" name="LMAXFOCK">     0</i>
   <i type="int" name="NMAXFOCKAE">     0</i>
   <i type="logical" name="LFOCKAEDFT"> F  </i>
   <i name="HFSCREEN">      0.00000000</i>
   <i name="HFSCREENC">      0.00000000</i>
   <i type="int" name="NBANDSGWLOW">     0</i>
  </separator>
  <separator name="vdW DFT" >
   <i type="logical" name="LUSE_VDW"> F  </i>
   <i name="Zab_VDW">     -0.84910000</i>
   <i name="PARAM1">      0.12340000</i>
   <i name="PARAM2">      1.00000000</i>
   <i name="PARAM3">      0.00000000</i>
  </separator>
  <separator name="model GW" >
   <i type="int" name="MODEL_GW">     0</i>
   <i name="MODEL_EPS0">     10.62586249</i>
   <i name="MODEL_ALPHA">      1.00000000</i>
  </separator>
  <separator name="linear response parameters" >
   <i type="logical" name="LEPSILON"> F  </i>
   <i type="logical" name="LRPA"> F  </i>
   <i type="logical" name="LNABLA"> F  </i>
   <i type="logical" name="LVEL"> F  </i>
   <i type="int" name="KINTER">     0</i>
   <i name="CSHIFT">      0.10000000</i>
   <i name="OMEGAMAX">     -1.00000000</i>
   <i name="DEG_THRESHOLD">      0.00200000</i>
   <i name="RTIME">     -0.10000000</i>
   <i name="WPLASMAI">      0.00000000</i>
   <v name="DFIELD">      0.00000000      0.00000000      0.00000000</v>
   <v name="WPLASMA">      0.00000000      0.00000000      0.00000000      0.00000000      0.00000000      0.00000000      0.00000000      0.00000000      0.00000000</v>
  </separator>
  <separator name="orbital magnetization" >
   <i type="logical" name="NUCIND"> F  </i>
   <v name="MAGPOS">      0.00000000      0.00000000      0.00000000</v>
   <i type="logical" name="LNICSALL"> T  </i>
   <i type="logical" name="ORBITALMAG"> F  </i>
   <i type="logical" name="LMAGBLOCH"> F  </i>
   <i type="logical" name="LCHIMAG"> F  </i>
   <i type="logical" name="LGAUGE"> T  </i>
   <i type="int" name="MAGATOM">     0</i>
   <v name="MAGDIPOL">      0.00000000      0.00000000      0.00000000</v>
   <v name="AVECCONST">      0.00000000      0.00000000      0.00000000</v>
  </separator>
  <separator name="response functions" >
   <i type="logical" name="LADDER"> F  </i>
   <i type="logical" name="LRPAFORCE"> F  </i>
   <i type="logical" name="LFXC"> F  </i>
   <i type="logical" name="LHARTREE"> T  </i>
   <i type="int" name="IBSE">     0</i>
   <v type="int" name="KPOINT">    -1     0     0     0</v>
   <i type="logical" name="LTCTE"> F  </i>
   <i type="logical" name="LTETE"> F  </i>
   <i type="logical" name="LTRIPLET"> F  </i>
   <i type="logical" name="LFXCEPS"> F  </i>
   <i type="logical" name="LFXHEG"> F  </i>
   <i type="int" name="NATURALO">     2</i>
   <i type="logical" name="L2ORDER"> F  </i>
   <i type="logical" name="LMP2LT"> F  </i>
   <i type="logical" name="LUSEW"> F  </i>
   <i name="ENCUTGW">     -2.00000000</i>
   <i name="ENCUTGWSOFT">     -2.00000000</i>
   <i name="ENCUTLF">     -1.00000000</i>
   <i type="int" name="LMAXMP2">    -1</i>
   <i name="SCISSOR">      0.00000000</i>
   <i type="int" name="NOMEGA">     0</i>
   <i type="int" name="NOMEGAR">     0</i>
   <i type="int" name="NBANDSGW">    -1</i>
   <i type="int" name="NBANDSO">    -1</i>
   <i type="int" name="NBANDSV">    -1</i>
   <i type="int" name="NELM">   100</i>
   <i type="int" name="NELMHF">     1</i>
   <i type="int" name="DIM">     3</i>
   <i type="int" name="ANTIRES">     0</i>
   <i name="OMEGAMAX">    -30.00000000</i>
   <i name="OMEGAMIN">    -30.00000000</i>
   <i name="OMEGATL">   -200.00000000</i>
   <i type="int" name="OMEGAGRID">   140</i>
   <i name="CSHIFT">     -0.10000000</i>
   <i type="logical" name="SELFENERGY"> F  </i>
   <i type="logical" name="LSPECTRAL"> F  </i>
   <i type="logical" name="LSPECTRALGW"> F  </i>
   <i type="logical" name="LSINGLES"> F  </i>
   <i type="logical" name="LFERMIGW"> F  </i>
   <i type="logical" name="ODDONLYGW"> F  </i>
   <i type="logical" name="EVENONLYGW"> F  </i>
   <i type="int" name="NKREDLFX">     1</i>
   <i type="int" name="NKREDLFY">     1</i>
   <i type="int" name="NKREDLFZ">     1</i>
   <i type="int" name="MAXMEM">  2800</i>
   <i type="int" name="TELESCOPE">     0</i>
   <i type="int" name="TAUPAR">     1</i>
   <i type="int" name="OMEGAPAR">    -1</i>
   <i name="LAMBDA">      1.00000000</i>
  </separator>
  <separator name="External order field" >
   <i name="OFIELD_KAPPA">      0.00000000</i>
   <v name="OFIELD_K">      0.00000000      0.00000000      0.00000000</v>
   <i name="OFIELD_Q6_NEAR">      0.00000000</i>
   <i name="OFIELD_Q6_FAR">      0.00000000</i>
   <i name="OFIELD_A">      0.00000000</i>
  </separator>
 </parameters>
 <atominfo>
  <atoms>      16 </atoms>
  <types>       3 </types>
  <array name="atoms" >
   <dimension dim="1">ion</dimension>
   <field type="string">element</field>
   <field type="int">atomtype</field>
   <set>
    <rc><c>P </c><c>   1</c></rc>
    <rc><c>P </c><c>   1</c></rc>
    <rc><c>S </c><c>   2</c></rc>
    <rc><c>S </c><c>   2</c></rc>
    <rc><c>S </c><c>   2</c></rc>
    <rc><c>S </c><c>   2</c></rc>
    <rc><c>S </c><c>   2</c></rc>
    <rc><c>S </c><c>   2</c></rc>
    <rc><c>S </c><c>   2</c></rc>
    <rc><c>S </c><c>   2</c></rc>
    <rc><c>Li</c><c>   3</c></rc>
    <rc><c>Li</c><c>   3</c></rc>
    <rc><c>Li</c><c>   3</c></rc>
    <rc><c>Li</c><c>   3</c></rc>
    <rc><c>Li</c><c>   3</c></rc>
    <rc><c>Li</c><c>   3</c></rc>
   </set>
  </array>
  <array name="atomtypes" >
   <dimension dim="1">type</dimension>
   <field type="int">atomspertype</field>
   <field type="string">element</field>
   <field>mass</field>
   <field>valence</field>
   <field type="string">pseudopotential</field>
   <set>
    <rc><c>   2</c><c>P </c><c>     30.97400000</c><c>      5.00000000</c><c>  PAW P 26Mar2009                       </c></rc>
    <rc><c>   8</c><c>S </c><c>     32.06600000</c><c>      6.00000000</c><c>  PAW S 27Mar2009                       </c></rc>
    <rc><c>   6</c><c>Li</c><c>      7.01000000</c><c>      3.00000000</c><c>  PAW Li_sv 10Sep2004                   </c></rc>
   </set>
  </array>
 </atominfo>
 <structure name="initialpos" >
  <crystal>
   <varray name="basis" >
    <v>       7.79087466       0.00000000       0.00000000 </v>
    <v>       0.00000000       6.13240817       0.00000000 </v>
    <v>       0.00000000       0.00000000       5.93083242 </v>
   </varray>
   <i name="volume">    283.35633297 </i>
   <varray name="rec_basis" >
    <v>       0.12835529       0.00000000       0.00000000 </v>
    <v>       0.00000000       0.16306808       0.00000000 </v>
    <v>       0.00000000       0.00000000       0.16861040 </v>
   </varray>
  </crystal>
  <varray name="positions" >
   <v>       0.00000000       0.77138124       0.41675780 </v>
   <v>       0.50000000       0.22861876       0.91675780 </v>
   <v>       0.20831662       0.60140021       0.30383537 </v>
   <v>       0.29168338       0.39859979       0.80383537 </v>
   <v>       0.70831662       0.39859979       0.80383537 </v>
   <v>       0.79168338       0.60140021       0.30383537 </v>
   <v>       0.00000000       0.06371228       0.25684882 </v>
   <v>       0.50000000       0.93628772       0.75684882 </v>
   <v>       0.00000000       0.81764131       0.75611764 </v>
   <v>       0.50000000       0.18235869       0.25611764 </v>
   <v>       0.00000000       0.43426565       0.00404234 </v>
   <v>       0.50000000       0.56573435       0.50404234 </v>
   <v>       0.26659509       0.76804014       0.94350607 </v>
   <v>       0.23340491       0.23195986       0.44350607 </v>
   <v>       0.76659509       0.23195986       0.44350607 </v>
   <v>       0.73340491       0.76804014       0.94350607 </v>
  </varray>
 </structure>
 <calculation>
  <scstep>
   <time name="dav">    0.20    0.21</time>
   <time name="total">    0.22    0.23</time>
   <energy>
    <i name="alphaZ">     69.64008182 </i>
    <i name="ewald">  -2741.09998047 </i>
    <i name="hartreedc">   -625.52928097 </i>
    <i name="XCdc">    182.12033332 </i>
    <i name="pawpsdc">   2494.22442938 </i>
    <i name="pawaedc">  -2541.12215007 </i>
    <i name="eentropy">      0.00000000 </i>
    <i name="bandstr">   -109.51829562 </i>
    <i name="atom">   3769.08782378 </i>
    <i name="e_fr_energy">    497.80296118 </i>
    <i name="e_wo_entrp">    497.80296118 </i>
    <i name="e_0_energy">    497.80296118 </i>
   </energy>
  </scstep>
  <scstep>
   <time name="dav">    0.20    0.20</time>
   <time name="total">    0.20    0.20</time>
   <energy>
    <i name="e_fr_energy">    -11.76404640 </i>
    <i name="e_wo_entrp">    -11.76404640 </i>
    <i name="e_0_energy">    -11.76404640 </i>
   </energy>
  </scstep>
  <scstep>
   <time name="dav">    0.22    0.22</time>
   <time name="total">    0.22    0.22</time>
   <energy>
    <i name="e_fr_energy">    -72.07081312 </i>
    <i name="e_wo_entrp">    -72.07081312 </i>
    <i name="e_0_energy">    -72.07081312 </i>
   </energy>
  </scstep>
  <scstep>
   <time name="dav">    0.28    0.28</time>
   <time name="total">    0.28    0.28</time>
   <energy>
    <i name="e_fr_energy">    -78.59923211 </i>
    <i name="e_wo_entrp">    -78.59923211 </i>
    <i name="e_0_energy">    -78.59923211 </i>
   </energy>
  </scstep>
  <scstep>
   <time name="dav">    0.24    0.24</time>
   <time name="total">    0.26    0.26</time>
   <energy>
    <i name="e_fr_energy">    -79.43733769 </i>
    <i name="e_wo_entrp">    -79.43733769 </i>
    <i name="e_0_energy">    -79.43733769 </i>
   </energy>
  </scstep>
  <scstep>
   <time name="diag">    0.05    0.05</time>
   <time name="diis">    0.09    0.09</time>
   <time name="orth">    0.01    0.01</time>
   <time name="total">    0.17    0.17</time>
   <energy>
    <i name="e_fr_energy">    -77.34581364 </i>
    <i name="e_wo_entrp">    -77.34581364 </i>
    <i name="e_0_energy">    -77.34581364 </i>
   </energy>
  </scstep>
  <scstep>
   <time name="diag">    0.05    0.05</time>
   <time name="diis">    0.09    0.09</time>
   <time name="orth">    0.01    0.01</time>
   <time name="total">    0.17    0.17</time>
   <energy>
    <i name="e_fr_energy">    -76.92436632 </i>
    <i name="e_wo_entrp">    -76.92436632 </i>
    <i name="e_0_energy">    -76.92436632 </i>
   </energy>
  </scstep>
  <scstep>
   <time name="diag">    0.05    0.05</time>
   <time name="diis">    0.11    0.11</time>
   <time name="orth">    0.01    0.01</time>
   <time name="total">    0.19    0.19</time>
   <energy>
    <i name="e_fr_energy">    -76.84869907 </i>
    <i name="e_wo_entrp">    -76.84869907 </i>
    <i name="e_0_energy">    -76.84869907 </i>
   </energy>
  </scstep>
  <scstep>
   <time name="diag">    0.05    0.05</time>
   <time name="diis">    0.11    0.11</time>
   <time name="orth">    0.01    0.01</time>
   <time name="total">    0.19    0.19</time>
   <energy>
    <i name="e_fr_energy">    -76.84249799 </i>
    <i name="e_wo_entrp">    -76.84249799 </i>
    <i name="e_0_energy">    -76.84249799 </i>
   </energy>
  </scstep>
  <scstep>
   <time name="diag">    0.05    0.05</time>
   <time name="diis">    0.14    0.14</time>
   <time name="orth">    0.01    0.01</time>
   <time name="total">    0.22    0.22</time>
   <energy>
    <i name="e_fr_energy">    -76.84290747 </i>
    <i name="e_wo_entrp">    -76.84290747 </i>
    <i name="e_0_energy">    -76.84290747 </i>
   </energy>
  </scstep>
  <scstep>
   <time name="diag">    0.05    0.05</time>
   <time name="diis">    0.12    0.12</time>
   <time name="orth">    0.01    0.01</time>
   <time name="total">    0.21    0.21</time>
   <energy>
    <i name="e_fr_energy">    -76.84328298 </i>
    <i name="e_wo_entrp">    -76.84328298 </i>
    <i name="e_0_energy">    -76.84328298 </i>
   </energy>
  </scstep>
  <scstep>
   <time name="diag">    0.05    0.05</time>
   <time name="diis">    0.12    0.12</time>
   <time name="orth">    0.01    0.01</time>
   <time name="total">    0.20    0.20</time>
   <energy>
    <i name="e_fr_energy">    -76.84344680 </i>
    <i name="e_wo_entrp">    -76.84344680 </i>
    <i name="e_0_energy">    -76.84344680 </i>
   </energy>
  </scstep>
  <scstep>
   <time name="diag">    0.05    0.05</time>
   <time name="diis">    0.09    0.09</time>
   <time name="orth">    0.01    0.01</time>
   <time name="total">    0.17    0.17</time>
   <energy>
    <i name="e_fr_energy">    -76.84354243 </i>
    <i name="e_wo_entrp">    -76.84354243 </i>
    <i name="e_0_energy">    -76.84354243 </i>
   </energy>
  </scstep>
  <scstep>
   <time name="diag">    0.05    0.05</time>
   <time name="diis">    0.09    0.09</time>
   <time name="orth">    0.01    0.01</time>
   <time name="total">    0.18    0.18</time>
   <energy>
    <i name="e_fr_energy">    -76.84358912 </i>
    <i name="e_wo_entrp">    -76.84358912 </i>
    <i name="e_0_energy">    -76.84358912 </i>
   </energy>
  </scstep>
  <scstep>
   <time name="diag">    0.05    0.05</time>
   <time name="diis">    0.08    0.08</time>
   <time name="orth">    0.01    0.01</time>
   <time name="total">    0.16    0.16</time>
   <energy>
    <i name="e_fr_energy">    -76.84361625 </i>
    <i name="e_wo_entrp">    -76.84361625 </i>
    <i name="e_0_energy">    -76.84361625 </i>
   </energy>
  </scstep>
  <scstep>
   <time name="diag">    0.05    0.05</time>
   <time name="diis">    0.07    0.07</time>
   <time name="orth">    0.01    0.01</time>
   <time name="total">    0.14    0.14</time>
   <energy>
    <i name="alphaZ">     69.64008182 </i>
    <i name="ewald">  -2741.09998047 </i>
    <i name="hartreedc">   -653.70506571 </i>
    <i name="XCdc">    185.31487390 </i>
    <i name="pawpsdc">   7422.01853368 </i>
    <i name="pawaedc">  -7472.48517972 </i>
    <i name="eentropy">      0.00000000 </i>
    <i name="bandstr">   -655.61471638 </i>
    <i name="atom">   3769.08782378 </i>
    <i name="e_fr_energy">    -76.84362910 </i>
    <i name="e_wo_entrp">    -76.84362910 </i>
    <i name="e_0_energy">    -76.84362910 </i>
   </energy>
  </scstep>
  <structure>
   <crystal>
    <varray name="basis" >
     <v>       7.79087466       0.00000000       0.00000000 </v>
     <v>       0.00000000       6.13240817       0.00000000 </v>
     <v>       0.00000000       0.00000000       5.93083242 </v>
    </varray>
    <i name="volume">    283.35633297 </i>
    <varray name="rec_basis" >
     <v>       0.12835529       0.00000000       0.00000000 </v>
     <v>       0.00000000       0.16306808       0.00000000 </v>
     <v>       0.00000000       0.00000000       0.16861040 </v>
    </varray>
   </crystal>
   <varray name="positions" >
    <v>       0.00000000       0.77138124       0.41675780 </v>
    <v>       0.50000000       0.22861876       0.91675780 </v>
    <v>       0.20831662       0.60140021       0.30383537 </v>
    <v>       0.29168338       0.39859979       0.80383537 </v>
    <v>       0.70831662       0.39859979       0.80383537 </v>
    <v>       0.79168338       0.60140021       0.30383537 </v>
    <v>       0.00000000       0.06371228       0.25684882 </v>
    <v>       0.50000000       0.93628772       0.75684882 </v>
    <v>       0.00000000       0.81764131       0.75611764 </v>
    <v>       0.50000000       0.18235869       0.25611764 </v>
    <v>       0.00000000       0.43426565       0.00404234 </v>
    <v>       0.50000000       0.56573435       0.50404234 </v>
    <v>       0.26659509       0.76804014       0.94350607 </v>
    <v>       0.23340491       0.23195986       0.44350607 </v>
    <v>       0.76659509       0.23195986       0.44350607 </v>
    <v>       0.73340491       0.76804014       0.94350607 </v>
   </varray>
  </structure>
  <varray name="forces" >
   <v>       0.00000000      -0.03796163       0.06923942 </v>
   <v>       0.00000000       0.03796163       0.06923942 </v>
   <v>      -0.00092329       0.10572421      -0.18197957 </v>
   <v>       0.00092329      -0.10572421      -0.18197957 </v>
   <v>      -0.00092329      -0.10572421      -0.18197957 </v>
   <v>       0.00092329       0.10572421      -0.18197957 </v>
   <v>       0.00000000       0.03992222       0.09935971 </v>
   <v>       0.00000000      -0.03992222       0.09935971 </v>
   <v>       0.00000000      -0.01824286       0.05367188 </v>
   <v>       0.00000000       0.01824286       0.05367188 </v>
   <v>       0.00000000       0.01775885       0.03692708 </v>
   <v>       0.00000000      -0.01775885       0.03692708 </v>
   <v>       0.05261104       0.06708153       0.05238052 </v>
   <v>      -0.05261104      -0.06708153       0.05238052 </v>
   <v>       0.05261104      -0.06708153       0.05238052 </v>
   <v>      -0.05261104       0.06708153       0.05238052 </v>
  </varray>
  <varray name="stress" >
   <v>      -4.99660773       0.00000000       0.00000000 </v>
   <v>       0.00000000      -0.24006153       0.00000000 </v>
   <v>       0.00000000       0.00000000      -0.26112569 </v>
  </varray>
  <energy>
   <i name="e_fr_energy">    -76.84362910 </i>
   <i name="e_wo_entrp">    -76.84362910 </i>
   <i name="e_0_energy">      0.00000000 </i>
  </energy>
  <time name="totalsc">    3.37    3.40</time>
 </calculation>
 <calculation>
  <scstep>
   <time name="dav">    0.20    0.20</time>
   <time name="total">    0.22    0.23</time>
   <energy>
    <i name="alphaZ">     69.84479604 </i>
    <i name="ewald">  -2744.36282032 </i>
    <i name="hartreedc">   -653.89951243 </i>
    <i name="XCdc">    185.50877217 </i>
    <i name="pawpsdc">   7422.09142509 </i>
    <i name="pawaedc">  -7472.55744746 </i>
    <i name="eentropy">      0.00000000 </i>
    <i name="bandstr">   -652.56783586 </i>
    <i name="atom">   3769.08782378 </i>
    <i name="e_fr_energy">    -76.85479899 </i>
    <i name="e_wo_entrp">    -76.85479899 </i>
    <i name="e_0_energy">    -76.85479899 </i>
   </energy>
  </scstep>
  <scstep>
   <time name="diag">    0.05    0.05</time>
   <time name="diis">    0.10    0.10</time>
   <time name="orth">    0.01    0.01</time>
   <time name="total">    0.19    0.19</time>
   <energy>
    <i name="e_fr_energy">    -76.85685292 </i>
    <i name="e_wo_entrp">    -76.85685292 </i>
    <i name="e_0_energy">    -76.85685292 </i>
   </energy>
  </scstep>
  <scstep>
   <time name="diag">    0.05    0.05</time>
   <time name="diis">    0.13    0.13</time>
   <time name="orth">    0.01    0.01</time>
   <time name="total">    0.21    0.21</time>
   <energy>
    <i name="e_fr_energy">    -76.85585968 </i>
    <i name="e_wo_entrp">    -76.85585968 </i>
    <i name="e_0_energy">    -76.85585968 </i>
   </energy>
  </scstep>
  <scstep>
   <time name="diag">    0.05    0.05</time>
   <time name="diis">    0.11    0.11</time>
   <time name="orth">    0.01    0.01</time>
   <time name="total">    0.19    0.19</time>
   <energy>
    <i name="e_fr_energy">    -76.85556491 </i>
    <i name="e_wo_entrp">    -76.85556491 </i>
    <i name="e_0_energy">    -76.85556491 </i>
   </energy>
  </scstep>
  <scstep>
   <time name="diag">    0.05    0.05</time>
   <time name="diis">    0.12    0.12</time>
   <time name="orth">    0.01    0.01</time>
   <time name="total">    0.20    0.20</time>
   <energy>
    <i name="e_fr_energy">    -76.85558912 </i>
    <i name="e_wo_entrp">    -76.85558912 </i>
    <i name="e_0_energy">    -76.85558912 </i>
   </energy>
  </scstep>
  <scstep>
   <time name="diag">    0.05    0.05</time>
   <time name="diis">    0.10    0.10</time>
   <time name="orth">    0.01    0.01</time>
   <time name="total">    0.19    0.19</time>
   <energy>
    <i name="e_fr_energy">    -76.85560339 </i>
    <i name="e_wo_entrp">    -76.85560339 </i>
    <i name="e_0_energy">    -76.85560339 </i>
   </energy>
  </scstep>
  <scstep>
   <time name="diag">    0.05    0.05</time>
   <time name="diis">    0.07    0.07</time>
   <time name="orth">    0.01    0.01</time>
   <time name="total">    0.14    0.14</time>
   <energy>
    <i name="alphaZ">     69.84479604 </i>
    <i name="ewald">  -2744.36282032 </i>
    <i name="hartreedc">   -652.23396563 </i>
    <i name="XCdc">    185.38765340 </i>
    <i name="pawpsdc">   7445.66545477 </i>
    <i name="pawaedc">  -7496.10323510 </i>
    <i name="eentropy">      0.00000000 </i>
    <i name="bandstr">   -654.14130237 </i>
    <i name="atom">   3769.08782378 </i>
    <i name="e_fr_energy">    -76.85559543 </i>
    <i name="e_wo_entrp">    -76.85559543 </i>
    <i name="e_0_energy">    -76.85559543 </i>
   </energy>
  </scstep>
  <structure>
   <crystal>
    <varray name="basis" >
     <v>       7.77011620       0.00000000       0.00000000 </v>
     <v>       0.00000000       6.13162314       0.00000000 </v>
     <v>       0.00000000       0.00000000       5.93000657 </v>
    </varray>
    <i name="volume">    282.52581913 </i>
    <varray name="rec_basis" >
     <v>       0.12869820       0.00000000       0.00000000 </v>
     <v>       0.00000000       0.16308895       0.00000000 </v>
     <v>       0.00000000       0.00000000       0.16863388 </v>
    </varray>
   </crystal>
   <varray name="positions" >
    <v>       0.00000000       0.77108260       0.41732101 </v>
    <v>       0.50000000       0.22891740       0.91732101 </v>
    <v>       0.20831090       0.60223193       0.30235511 </v>
    <v>       0.29168910       0.39776807       0.80235511 </v>
    <v>       0.70831090       0.39776807       0.80235511 </v>
    <v>       0.79168910       0.60223193       0.30235511 </v>
    <v>       0.00000000       0.06402634       0.25765704 </v>
    <v>       0.50000000       0.93597366       0.75765704 </v>
    <v>       0.00000000       0.81749780       0.75655422 </v>
    <v>       0.50000000       0.18250220       0.25655422 </v>
    <v>       0.00000000       0.43440536       0.00434272 </v>
    <v>       0.50000000       0.56559464       0.50434272 </v>
    <v>       0.26692087       0.76856785       0.94393214 </v>
    <v>       0.23307913       0.23143215       0.44393214 </v>
    <v>       0.76692087       0.23143215       0.44393214 </v>
    <v>       0.73307913       0.76856785       0.94393214 </v>
   </varray>
  </structure>
  <varray name="forces" >
   <v>       0.00000000       0.05814799       0.03418692 </v>
   <v>       0.00000000      -0.05814799       0.03418692 </v>
   <v>       0.06100248       0.04248067      -0.13808128 </v>
   <v>      -0.06100248      -0.04248067      -0.13808128 </v>
   <v>       0.06100248      -0.04248067      -0.13808128 </v>
   <v>      -0.06100248       0.04248067      -0.13808128 </v>
   <v>       0.00000000       0.03333613       0.09799777 </v>
   <v>       0.00000000      -0.03333613       0.09799777 </v>
   <v>       0.00000000      -0.02751973       0.03791214 </v>
   <v>       0.00000000       0.02751973       0.03791214 </v>
   <v>       0.00000000       0.01511607       0.02930678 </v>
   <v>       0.00000000      -0.01511607       0.02930678 </v>
   <v>       0.04558254       0.05269181       0.03837948 </v>
   <v>      -0.04558254      -0.05269181       0.03837948 </v>
   <v>       0.04558254      -0.05269181       0.03837948 </v>
   <v>      -0.04558254       0.05269181       0.03837948 </v>
  </varray>
  <varray name="stress" >
   <v>      -1.36596019       0.00000000       0.00000000 </v>
   <v>       0.00000000       0.58990842       0.00000000 </v>
   <v>       0.00000000       0.00000000      -0.10930792 </v>
  </varray>
  <energy>
   <i name="e_fr_energy">    -76.85559543 </i>
   <i name="e_wo_entrp">    -76.85559543 </i>
   <i name="e_0_energy">      0.00000000 </i>
  </energy>
  <time name="totalsc">    1.53    1.54</time>
 </calculation>
 <calculation>
  <scstep>
   <time name="dav">    0.19    0.19</time>
   <time name="total">    0.21    0.21</time>
   <energy>
    <i name="alphaZ">     70.18223108 </i>
    <i name="ewald">  -2749.68065817 </i>
    <i name="hartreedc">   -652.58080798 </i>
    <i name="XCdc">    185.70527723 </i>
    <i name="pawpsdc">   7445.70243471 </i>
    <i name="pawaedc">  -7496.14008658 </i>
    <i name="eentropy">      0.00000000 </i>
    <i name="bandstr">   -649.13580026 </i>
    <i name="atom">   3769.08782378 </i>
    <i name="e_fr_energy">    -76.85958620 </i>
    <i name="e_wo_entrp">    -76.85958620 </i>
    <i name="e_0_energy">    -76.85958620 </i>
   </energy>
  </scstep>
  <scstep>
   <time name="diag">    0.05    0.05</time>
   <time name="diis">    0.10    0.10</time>
   <time name="orth">    0.01    0.01</time>
   <time name="total">    0.18    0.19</time>
   <energy>
    <i name="e_fr_energy">    -76.86454857 </i>
    <i name="e_wo_entrp">    -76.86454857 </i>
    <i name="e_0_energy">    -76.86454857 </i>
   </energy>
  </scstep>
  <scstep>
   <time name="diag">    0.06    0.06</time>
   <time name="diis">    0.13    0.13</time>
   <time name="orth">    0.01    0.01</time>
   <time name="total">    0.22    0.22</time>
   <energy>
    <i name="e_fr_energy">    -76.86207111 </i>
    <i name="e_wo_entrp">    -76.86207111 </i>
    <i name="e_0_energy">    -76.86207111 </i>
   </energy>
  </scstep>
  <scstep>
   <time name="diag">    0.05    0.05</time>
   <time name="diis">    0.11    0.11</time>
   <time name="orth">    0.01    0.01</time>
   <time name="total">    0.19    0.19</time>
   <energy>
    <i name="e_fr_energy">    -76.86134197 </i>
    <i name="e_wo_entrp">    -76.86134197 </i>
    <i name="e_0_energy">    -76.86134197 </i>
   </energy>
  </scstep>
  <scstep>
   <time name="diag">    0.05    0.05</time>
   <time name="diis">    0.13    0.13</time>
   <time name="orth">    0.01    0.01</time>
   <time name="total">    0.21    0.21</time>
   <energy>
    <i name="e_fr_energy">    -76.86141479 </i>
    <i name="e_wo_entrp">    -76.86141479 </i>
    <i name="e_0_energy">    -76.86141479 </i>
   </energy>
  </scstep>
  <scstep>
   <time name="diag">    0.05    0.05</time>
   <time name="diis">    0.12    0.12</time>
   <time name="orth">    0.01    0.01</time>
   <time name="total">    0.20    0.20</time>
   <energy>
    <i name="e_fr_energy">    -76.86146024 </i>
    <i name="e_wo_entrp">    -76.86146024 </i>
    <i name="e_0_energy">    -76.86146024 </i>
   </energy>
  </scstep>
  <scstep>
   <time name="diag">    0.05    0.05</time>
   <time name="diis">    0.11    0.11</time>
   <time name="orth">    0.01    0.01</time>
   <time name="total">    0.19    0.19</time>
   <energy>
    <i name="e_fr_energy">    -76.86146201 </i>
    <i name="e_wo_entrp">    -76.86146201 </i>
    <i name="e_0_energy">    -76.86146201 </i>
   </energy>
  </scstep>
  <scstep>
   <time name="diag">    0.05    0.05</time>
   <time name="diis">    0.05    0.05</time>
   <time name="orth">    0.01    0.01</time>
   <time name="total">    0.12    0.12</time>
   <energy>
    <i name="alphaZ">     70.18223108 </i>
    <i name="ewald">  -2749.68065817 </i>
    <i name="hartreedc">   -649.85589197 </i>
    <i name="XCdc">    185.50532570 </i>
    <i name="pawpsdc">   7480.54438020 </i>
    <i name="pawaedc">  -7530.94840278 </i>
    <i name="eentropy">      0.00000000 </i>
    <i name="bandstr">   -651.69626443 </i>
    <i name="atom">   3769.08782378 </i>
    <i name="e_fr_energy">    -76.86145659 </i>
    <i name="e_wo_entrp">    -76.86145659 </i>
    <i name="e_0_energy">    -76.86145659 </i>
   </energy>
  </scstep>
  <structure>
   <crystal>
    <varray name="basis" >
     <v>       7.73614159       0.00000000       0.00000000 </v>
     <v>       0.00000000       6.13033830       0.00000000 </v>
     <v>       0.00000000       0.00000000       5.92865494 </v>
    </varray>
    <i name="volume">    281.16743952 </i>
    <varray name="rec_basis" >
     <v>       0.12926340       0.00000000       0.00000000 </v>
     <v>       0.00000000       0.16312313       0.00000000 </v>
     <v>       0.00000000       0.00000000       0.16867232 </v>
    </varray>
   </crystal>
   <varray name="positions" >
    <v>       0.00000000       0.77059377       0.41824292 </v>
    <v>       0.50000000       0.22940623       0.91824292 </v>
    <v>       0.20830152       0.60359334       0.29993208 </v>
    <v>       0.29169848       0.39640666       0.79993208 </v>
    <v>       0.70830152       0.39640666       0.79993208 </v>
    <v>       0.79169848       0.60359334       0.29993208 </v>
    <v>       0.00000000       0.06454042       0.25897999 </v>
    <v>       0.50000000       0.93545958       0.75897999 </v>
    <v>       0.00000000       0.81726288       0.75726885 </v>
    <v>       0.50000000       0.18273712       0.25726885 </v>
    <v>       0.00000000       0.43463404       0.00483439 </v>
    <v>       0.50000000       0.56536596       0.50483439 </v>
    <v>       0.26745549       0.76943166       0.94462958 </v>
    <v>       0.23254451       0.23056834       0.44462958 </v>
    <v>       0.76745549       0.23056834       0.44462958 </v>
    <v>       0.73254451       0.76943166       0.94462958 </v>
   </varray>
  </structure>
  <varray name="forces" >
   <v>      -0.00000000       0.21458284      -0.01815587 </v>
   <v>      -0.00000000      -0.21458284      -0.01815587 </v>
   <v>       0.15860251      -0.07507728      -0.04766426 </v>
   <v>      -0.15860251       0.07507728      -0.04766426 </v>
   <v>       0.15860251       0.07507728      -0.04766426 </v>
   <v>      -0.15860251      -0.07507728      -0.04766426 </v>
   <v>      -0.00000000       0.00592854       0.07600050 </v>
   <v>      -0.00000000      -0.00592854       0.07600050 </v>
   <v>      -0.00000000      -0.04090969       0.00033296 </v>
   <v>      -0.00000000       0.04090969       0.00033296 </v>
   <v>      -0.00000000       0.01064060       0.01394720 </v>
   <v>      -0.00000000      -0.01064060       0.01394720 </v>
   <v>       0.03089153       0.02946870       0.01160186 </v>
   <v>      -0.03089153      -0.02946870       0.01160186 </v>
   <v>       0.03089153      -0.02946870       0.01160186 </v>
   <v>      -0.03089153       0.02946870       0.01160186 </v>
  </varray>
  <varray name="stress" >
   <v>       5.36687348       0.00000000       0.00000000 </v>
   <v>       0.00000000       2.25006499       0.00000000 </v>
   <v>       0.00000000       0.00000000       0.42649017 </v>
  </varray>
  <energy>
   <i name="e_fr_energy">    -76.86145659 </i>
   <i name="e_wo_entrp">    -76.86145659 </i>
   <i name="e_0_energy">      0.00000000 </i>
  </energy>
  <time name="totalsc">    1.71    1.72</time>
 </calculation>
 <calculation>
  <scstep>
   <time name="dav">    0.19    0.19</time>
   <time name="total">    0.21    0.21</time>
   <energy>
    <i name="alphaZ">     70.13700875 </i>
    <i name="ewald">  -2750.86086618 </i>
    <i name="hartreedc">   -648.35007728 </i>
    <i name="XCdc">    185.42726046 </i>
    <i name="pawpsdc">   7479.92049580 </i>
    <i name="pawaedc">  -7530.32462928 </i>
    <i name="eentropy">      0.00000000 </i>
    <i name="bandstr">   -651.89848872 </i>
    <i name="atom">   3769.08782378 </i>
    <i name="e_fr_energy">    -76.86147267 </i>
    <i name="e_wo_entrp">    -76.86147267 </i>
    <i name="e_0_energy">    -76.86147267 </i>
   </energy>
  </scstep>
  <scstep>
   <time name="diag">    0.05    0.05</time>
   <time name="diis">    0.11    0.11</time>
   <time name="orth">    0.01    0.01</time>
   <time name="total">    0.19    0.19</time>
   <energy>
    <i name="e_fr_energy">    -76.86619600 </i>
    <i name="e_wo_entrp">    -76.86619600 </i>
    <i name="e_0_energy">    -76.86619600 </i>
   </energy>
  </scstep>
  <scstep>
   <time name="diag">    0.05    0.05</time>
   <time name="diis">    0.14    0.14</time>
   <time name="orth">    0.01    0.01</time>
   <time name="total">    0.22    0.22</time>
   <energy>
    <i name="e_fr_energy">    -76.86609543 </i>
    <i name="e_wo_entrp">    -76.86609543 </i>
    <i name="e_0_energy">    -76.86609543 </i>
   </energy>
  </scstep>
  <scstep>
   <time name="diag">    0.05    0.05</time>
   <time name="diis">    0.12    0.12</time>
   <time name="orth">    0.01    0.01</time>
   <time name="total">    0.20    0.20</time>
   <energy>
    <i name="e_fr_energy">    -76.86599574 </i>
    <i name="e_wo_entrp">    -76.86599574 </i>
    <i name="e_0_energy">    -76.86599574 </i>
   </energy>
  </scstep>
  <scstep>
   <time name="diag">    0.05    0.05</time>
   <time name="diis">    0.12    0.12</time>
   <time name="orth">    0.01    0.01</time>
   <time name="total">    0.20    0.20</time>
   <energy>
    <i name="e_fr_energy">    -76.86603649 </i>
    <i name="e_wo_entrp">    -76.86603649 </i>
    <i name="e_0_energy">    -76.86603649 </i>
   </energy>
  </scstep>
  <scstep>
   <time name="diag">    0.05    0.05</time>
   <time name="diis">    0.07    0.07</time>
   <time name="orth">    0.01    0.01</time>
   <time name="total">    0.13    0.13</time>
   <energy>
    <i name="alphaZ">     70.13700875 </i>
    <i name="ewald">  -2750.86086618 </i>
    <i name="hartreedc">   -648.57490052 </i>
    <i name="XCdc">    185.44337995 </i>
    <i name="pawpsdc">   7432.29723355 </i>
    <i name="pawaedc">  -7482.67674260 </i>
    <i name="eentropy">      0.00000000 </i>
    <i name="bandstr">   -651.71897844 </i>
    <i name="atom">   3769.08782378 </i>
    <i name="e_fr_energy">    -76.86604171 </i>
    <i name="e_wo_entrp">    -76.86604171 </i>
    <i name="e_0_energy">    -76.86604171 </i>
   </energy>
  </scstep>
  <structure>
   <crystal>
    <varray name="basis" >
     <v>       7.73542691       0.00000000       0.00000000 </v>
     <v>       0.00000000       6.13457464       0.00000000 </v>
     <v>       0.00000000       0.00000000       5.92892852 </v>
    </varray>
    <i name="volume">    281.34872821 </i>
    <varray name="rec_basis" >
     <v>       0.12927535       0.00000000       0.00000000 </v>
     <v>       0.00000000       0.16301049       0.00000000 </v>
     <v>       0.00000000       0.00000000       0.16866454 </v>
    </varray>
   </crystal>
   <varray name="positions" >
    <v>       0.00000000       0.77148745       0.41856116 </v>
    <v>       0.50000000       0.22851255       0.91856116 </v>
    <v>       0.20894980       0.60381743       0.29858359 </v>
    <v>       0.29105020       0.39618257       0.79858359 </v>
    <v>       0.70894980       0.39618257       0.79858359 </v>
    <v>       0.79105020       0.60381743       0.29858359 </v>
    <v>       0.00000000       0.06480301       0.25998456 </v>
    <v>       0.50000000       0.93519699       0.75998456 </v>
    <v>       0.00000000       0.81694455       0.75759289 </v>
    <v>       0.50000000       0.18305545       0.25759289 </v>
    <v>       0.00000000       0.43479240       0.00513098 </v>
    <v>       0.50000000       0.56520760       0.50513098 </v>
    <v>       0.26782466       0.76997417       0.94500636 </v>
    <v>       0.23217534       0.23002583       0.44500636 </v>
    <v>       0.76782466       0.23002583       0.44500636 </v>
    <v>       0.73217534       0.76997417       0.94500636 </v>
   </varray>
  </structure>
  <varray name="forces" >
   <v>       0.00000000       0.02552857      -0.09742543 </v>
   <v>       0.00000000      -0.02552857      -0.09742543 </v>
   <v>       0.02719410      -0.02412237       0.03691067 </v>
   <v>      -0.02719410       0.02412237       0.03691067 </v>
   <v>       0.02719410       0.02412237       0.03691067 </v>
   <v>      -0.02719410      -0.02412237       0.03691067 </v>
   <v>       0.00000000       0.04197454       0.02711733 </v>
   <v>       0.00000000      -0.04197454       0.02711733 </v>
   <v>       0.00000000      -0.04169495      -0.01309675 </v>
   <v>       0.00000000       0.04169495      -0.01309675 </v>
   <v>       0.00000000       0.01548639       0.00924808 </v>
   <v>       0.00000000      -0.01548639       0.00924808 </v>
   <v>       0.01449417       0.00943925       0.00016772 </v>
   <v>      -0.01449417      -0.00943925       0.00016772 </v>
   <v>       0.01449417      -0.00943925       0.00016772 </v>
   <v>      -0.01449417       0.00943925       0.00016772 </v>
  </varray>
  <varray name="stress" >
   <v>       1.12784537       0.00000000       0.00000000 </v>
   <v>       0.00000000       1.25350168       0.00000000 </v>
   <v>       0.00000000       0.00000000       0.09860434 </v>
  </varray>
  <energy>
   <i name="e_fr_energy">    -76.86604171 </i>
   <i name="e_wo_entrp">    -76.86604171 </i>
   <i name="e_0_energy">      0.00000000 </i>
  </energy>
  <time name="totalsc">    1.35    1.36</time>
 </calculation>
 <calculation>
  <scstep>
   <time name="dav">    0.24    0.24</time>
   <time name="total">    0.26    0.26</time>
   <energy>
    <i name="alphaZ">     70.13599742 </i>
    <i name="ewald">  -2750.88654835 </i>
    <i name="hartreedc">   -648.54405184 </i>
    <i name="XCdc">    185.44195233 </i>
    <i name="pawpsdc">   7432.31449948 </i>
    <i name="pawaedc">  -7482.69322606 </i>
    <i name="eentropy">      0.00000000 </i>
    <i name="bandstr">   -651.72253250 </i>
    <i name="atom">   3769.08782378 </i>
    <i name="e_fr_energy">    -76.86608573 </i>
    <i name="e_wo_entrp">    -76.86608573 </i>
    <i name="e_0_energy">    -76.86608573 </i>
   </energy>
  </scstep>
  <scstep>
   <time name="diag">    0.05    0.05</time>
   <time name="diis">    0.07    0.07</time>
   <time name="orth">    0.01    0.01</time>
   <time name="total">    0.13    0.13</time>
   <energy>
    <i name="alphaZ">     70.13599742 </i>
    <i name="ewald">  -2750.88654835 </i>
    <i name="hartreedc">   -648.54641269 </i>
    <i name="XCdc">    185.44242713 </i>
    <i name="pawpsdc">   7432.33330129 </i>
    <i name="pawaedc">  -7482.71006316 </i>
    <i name="eentropy">      0.00000000 </i>
    <i name="bandstr">   -651.72261751 </i>
    <i name="atom">   3769.08782378 </i>
    <i name="e_fr_energy">    -76.86609208 </i>
    <i name="e_wo_entrp">    -76.86609208 </i>
    <i name="e_0_energy">    -76.86609208 </i>
   </energy>
  </scstep>
  <structure>
   <crystal>
    <varray name="basis" >
     <v>       7.73541092       0.00000000       0.00000000 </v>
     <v>       0.00000000       6.13466944       0.00000000 </v>
     <v>       0.00000000       0.00000000       5.92893464 </v>
    </varray>
    <i name="volume">    281.35278513 </i>
    <varray name="rec_basis" >
     <v>       0.12927561       0.00000000       0.00000000 </v>
     <v>       0.00000000       0.16300797       0.00000000 </v>
     <v>       0.00000000       0.00000000       0.16866437 </v>
    </varray>
   </crystal>
   <varray name="positions" >
    <v>       0.00000000       0.77150744       0.41856828 </v>
    <v>       0.50000000       0.22849256       0.91856828 </v>
    <v>       0.20896431       0.60382244       0.29855341 </v>
    <v>       0.29103569       0.39617756       0.79855341 </v>
    <v>       0.70896431       0.39617756       0.79855341 </v>
    <v>       0.79103569       0.60382244       0.29855341 </v>
    <v>       0.00000000       0.06480888       0.26000704 </v>
    <v>       0.50000000       0.93519112       0.76000704 </v>
    <v>       0.00000000       0.81693744       0.75760014 </v>
    <v>       0.50000000       0.18306256       0.25760014 </v>
    <v>       0.00000000       0.43479594       0.00513762 </v>
    <v>       0.50000000       0.56520406       0.50513762 </v>
    <v>       0.26783292       0.76998630       0.94501479 </v>
    <v>       0.23216708       0.23001370       0.44501479 </v>
    <v>       0.76783292       0.23001370       0.44501479 </v>
    <v>       0.73216708       0.76998630       0.94501479 </v>
   </varray>
  </structure>
  <varray name="forces" >
   <v>       0.00000000       0.02721940      -0.09823092 </v>
   <v>       0.00000000      -0.02721940      -0.09823092 </v>
   <v>       0.03001377      -0.02196025       0.03364915 </v>
   <v>      -0.03001377       0.02196025       0.03364915 </v>
   <v>       0.03001377       0.02196025       0.03364915 </v>
   <v>      -0.03001377      -0.02196025       0.03364915 </v>
   <v>       0.00000000       0.04110335       0.03312746 </v>
   <v>       0.00000000      -0.04110335       0.03312746 </v>
   <v>       0.00000000      -0.04234317      -0.01165082 </v>
   <v>       0.00000000       0.04234317      -0.01165082 </v>
   <v>       0.00000000       0.01505774       0.00858400 </v>
   <v>       0.00000000      -0.01505774       0.00858400 </v>
   <v>       0.01254895       0.00772067       0.00043599 </v>
   <v>      -0.01254895      -0.00772067       0.00043599 </v>
   <v>       0.01254895      -0.00772067       0.00043599 </v>
   <v>      -0.01254895       0.00772067       0.00043599 </v>
  </varray>
  <varray name="stress" >
   <v>       1.07944592       0.00000000       0.00000000 </v>
   <v>       0.00000000       1.19919481       0.00000000 </v>
   <v>       0.00000000       0.00000000       0.08016270 </v>
  </varray>
  <energy>
   <i name="e_fr_energy">    -76.86609208 </i>
   <i name="e_wo_entrp">    -76.86609208 </i>
   <i name="e_0_energy">      0.00000000 </i>
  </energy>
  <time name="totalsc">    0.59    0.59</time>
 </calculation>
 <calculation>
  <scstep>
   <time name="dav">    0.19    0.19</time>
   <time name="total">    0.22    0.22</time>
   <energy>
    <i name="alphaZ">     70.08031411 </i>
    <i name="ewald">  -2750.06512815 </i>
    <i name="hartreedc">   -648.45780439 </i>
    <i name="XCdc">    185.38866339 </i>
    <i name="pawpsdc">   7432.30895161 </i>
    <i name="pawaedc">  -7482.68426885 </i>
    <i name="eentropy">      0.00000000 </i>
    <i name="bandstr">   -652.52585834 </i>
    <i name="atom">   3769.08782378 </i>
    <i name="e_fr_energy">    -76.86730684 </i>
    <i name="e_wo_entrp">    -76.86730684 </i>
    <i name="e_0_energy">    -76.86730684 </i>
   </energy>
  </scstep>
  <scstep>
   <time name="diag">    0.05    0.05</time>
   <time name="diis">    0.11    0.11</time>
   <time name="orth">    0.01    0.01</time>
   <time name="total">    0.19    0.19</time>
   <energy>
    <i name="e_fr_energy">    -76.86729961 </i>
    <i name="e_wo_entrp">    -76.86729961 </i>
    <i name="e_0_energy">    -76.86729961 </i>
   </energy>
  </scstep>
  <scstep>
   <time name="diag">    0.05    0.05</time>
   <time name="diis">    0.11    0.11</time>
   <time name="orth">    0.01    0.01</time>
   <time name="total">    0.19    0.19</time>
   <energy>
    <i name="e_fr_energy">    -76.86725406 </i>
    <i name="e_wo_entrp">    -76.86725406 </i>
    <i name="e_0_energy">    -76.86725406 </i>
   </energy>
  </scstep>
  <scstep>
   <time name="diag">    0.05    0.05</time>
   <time name="diis">    0.08    0.08</time>
   <time name="orth">    0.01    0.01</time>
   <time name="total">    0.14    0.14</time>
   <energy>
    <i name="alphaZ">     70.08031411 </i>
    <i name="ewald">  -2750.06512815 </i>
    <i name="hartreedc">   -648.86777417 </i>
    <i name="XCdc">    185.41918210 </i>
    <i name="pawpsdc">   7419.96396056 </i>
    <i name="pawaedc">  -7470.33938235 </i>
    <i name="eentropy">      0.00000000 </i>
    <i name="bandstr">   -652.14623887 </i>
    <i name="atom">   3769.08782378 </i>
    <i name="e_fr_energy">    -76.86724300 </i>
    <i name="e_wo_entrp">    -76.86724300 </i>
    <i name="e_0_energy">    -76.86724300 </i>
   </energy>
  </scstep>
  <structure>
   <crystal>
    <varray name="basis" >
     <v>       7.73837776       0.00000000       0.00000000 </v>
     <v>       0.00000000       6.13703197       0.00000000 </v>
     <v>       0.00000000       0.00000000       5.92908729 </v>
    </varray>
    <i name="volume">    281.57633800 </i>
    <varray name="rec_basis" >
     <v>       0.12922605       0.00000000       0.00000000 </v>
     <v>       0.00000000       0.16294522       0.00000000 </v>
     <v>       0.00000000       0.00000000       0.16866002 </v>
    </varray>
   </crystal>
   <varray name="positions" >
    <v>       0.00000000       0.77160318       0.41802216 </v>
    <v>       0.50000000       0.22839682       0.91802216 </v>
    <v>       0.20905488       0.60369643       0.29880448 </v>
    <v>       0.29094512       0.39630357       0.79880448 </v>
    <v>       0.70905488       0.39630357       0.79880448 </v>
    <v>       0.79094512       0.60369643       0.29880448 </v>
    <v>       0.00000000       0.06500954       0.26013381 </v>
    <v>       0.50000000       0.93499046       0.76013381 </v>
    <v>       0.00000000       0.81673319       0.75752058 </v>
    <v>       0.50000000       0.18326681       0.25752058 </v>
    <v>       0.00000000       0.43486625       0.00516859 </v>
    <v>       0.50000000       0.56513375       0.50516859 </v>
    <v>       0.26786572       0.76999855       0.94499769 </v>
    <v>       0.23213428       0.23000145       0.44499769 </v>
    <v>       0.76786572       0.23000145       0.44499769 </v>
    <v>       0.73213428       0.76999855       0.94499769 </v>
   </varray>
  </structure>
  <varray name="forces" >
   <v>       0.00000000       0.00992096      -0.04270631 </v>
   <v>       0.00000000      -0.00992096      -0.04270631 </v>
   <v>       0.01295018      -0.00864768       0.02140326 </v>
   <v>      -0.01295018       0.00864768       0.02140326 </v>
   <v>       0.01295018       0.00864768       0.02140326 </v>
   <v>      -0.01295018      -0.00864768       0.02140326 </v>
   <v>       0.00000000       0.03446686       0.02221870 </v>
   <v>       0.00000000      -0.03446686       0.02221870 </v>
   <v>       0.00000000      -0.04768688      -0.03754494 </v>
   <v>       0.00000000       0.04768688      -0.03754494 </v>
   <v>       0.00000000       0.01639089       0.00843018 </v>
   <v>       0.00000000      -0.01639089       0.00843018 </v>
   <v>       0.00825806       0.00672349       0.00339793 </v>
   <v>      -0.00825806      -0.00672349       0.00339793 </v>
   <v>       0.00825806      -0.00672349       0.00339793 </v>
   <v>      -0.00825806       0.00672349       0.00339793 </v>
  </varray>
  <varray name="stress" >
   <v>       0.55962586       0.00000000       0.00000000 </v>
   <v>       0.00000000       0.76027662       0.00000000 </v>
   <v>       0.00000000       0.00000000      -0.44307718 </v>
  </varray>
  <energy>
   <i name="e_fr_energy">    -76.86724300 </i>
   <i name="e_wo_entrp">    -76.86724300 </i>
   <i name="e_0_energy">      0.00000000 </i>
  </energy>
  <time name="totalsc">    0.93    0.93</time>
 </calculation>
 <calculation>
  <scstep>
   <time name="dav">    0.18    0.18</time>
   <time name="total">    0.21    0.21</time>
   <energy>
    <i name="alphaZ">     70.00123841 </i>
    <i name="ewald">  -2748.90054801 </i>
    <i name="hartreedc">   -648.75686747 </i>
    <i name="XCdc">    185.34382752 </i>
    <i name="pawpsdc">   7420.64220046 </i>
    <i name="pawaedc">  -7471.01663661 </i>
    <i name="eentropy">      0.00000000 </i>
    <i name="bandstr">   -653.26890755 </i>
    <i name="atom">   3769.08782378 </i>
    <i name="e_fr_energy">    -76.86786948 </i>
    <i name="e_wo_entrp">    -76.86786948 </i>
    <i name="e_0_energy">    -76.86786948 </i>
   </energy>
  </scstep>
  <scstep>
   <time name="diag">    0.05    0.05</time>
   <time name="diis">    0.10    0.10</time>
   <time name="orth">    0.01    0.01</time>
   <time name="total">    0.19    0.19</time>
   <energy>
    <i name="e_fr_energy">    -76.86787168 </i>
    <i name="e_wo_entrp">    -76.86787168 </i>
    <i name="e_0_energy">    -76.86787168 </i>
   </energy>
  </scstep>
  <scstep>
   <time name="diag">    0.05    0.05</time>
   <time name="diis">    0.12    0.12</time>
   <time name="orth">    0.01    0.01</time>
   <time name="total">    0.20    0.21</time>
   <energy>
    <i name="e_fr_energy">    -76.86779437 </i>
    <i name="e_wo_entrp">    -76.86779437 </i>
    <i name="e_0_energy">    -76.86779437 </i>
   </energy>
  </scstep>
  <scstep>
   <time name="diag">    0.05    0.05</time>
   <time name="diis">    0.10    0.10</time>
   <time name="orth">    0.01    0.01</time>
   <time name="total">    0.16    0.16</time>
   <energy>
    <i name="alphaZ">     70.00123841 </i>
    <i name="ewald">  -2748.90054801 </i>
    <i name="hartreedc">   -649.32098065 </i>
    <i name="XCdc">    185.38647369 </i>
    <i name="pawpsdc">   7404.97874230 </i>
    <i name="pawaedc">  -7455.35891402 </i>
    <i name="eentropy">      0.00000000 </i>
    <i name="bandstr">   -652.74161243 </i>
    <i name="atom">   3769.08782378 </i>
    <i name="e_fr_energy">    -76.86777693 </i>
    <i name="e_wo_entrp">    -76.86777693 </i>
    <i name="e_0_energy">    -76.86777693 </i>
   </energy>
  </scstep>
  <structure>
   <crystal>
    <varray name="basis" >
     <v>       7.74259693       0.00000000       0.00000000 </v>
     <v>       0.00000000       6.14039172       0.00000000 </v>
     <v>       0.00000000       0.00000000       5.92930437 </v>
    </varray>
    <i name="volume">    281.89441585 </i>
    <varray name="rec_basis" >
     <v>       0.12915563       0.00000000       0.00000000 </v>
     <v>       0.00000000       0.16285606       0.00000000 </v>
     <v>       0.00000000       0.00000000       0.16865385 </v>
    </varray>
   </crystal>
   <varray name="positions" >
    <v>       0.00000000       0.77173929       0.41724553 </v>
    <v>       0.50000000       0.22826071       0.91724553 </v>
    <v>       0.20918364       0.60351730       0.29916152 </v>
    <v>       0.29081636       0.39648270       0.79916152 </v>
    <v>       0.70918364       0.39648270       0.79916152 </v>
    <v>       0.79081636       0.60351730       0.29916152 </v>
    <v>       0.00000000       0.06529480       0.26031409 </v>
    <v>       0.50000000       0.93470520       0.76031409 </v>
    <v>       0.00000000       0.81644284       0.75740745 </v>
    <v>       0.50000000       0.18355716       0.25740745 </v>
    <v>       0.00000000       0.43496619       0.00521264 </v>
    <v>       0.50000000       0.56503381       0.50521264 </v>
    <v>       0.26791235       0.77001596       0.94497337 </v>
    <v>       0.23208765       0.22998404       0.44497337 </v>
    <v>       0.76791235       0.22998404       0.44497337 </v>
    <v>       0.73208765       0.77001596       0.94497337 </v>
   </varray>
  </structure>
  <varray name="forces" >
   <v>       0.00000000      -0.01308063       0.03518863 </v>
   <v>       0.00000000       0.01308063       0.03518863 </v>
   <v>      -0.00976863       0.01294951      -0.00046706 </v>
   <v>       0.00976863      -0.01294951      -0.00046706 </v>
   <v>      -0.00976863      -0.01294951      -0.00046706 </v>
   <v>       0.00976863       0.01294951      -0.00046706 </v>
   <v>       0.00000000       0.02491344       0.00892362 </v>
   <v>       0.00000000      -0.02491344       0.00892362 </v>
   <v>       0.00000000      -0.04874527      -0.07131627 </v>
   <v>       0.00000000       0.04874527      -0.07131627 </v>
   <v>       0.00000000       0.01763238       0.00912741 </v>
   <v>       0.00000000      -0.01763238       0.00912741 </v>
   <v>       0.00134714       0.00456718       0.00950536 </v>
   <v>      -0.00134714      -0.00456718       0.00950536 </v>
   <v>       0.00134714      -0.00456718       0.00950536 </v>
   <v>      -0.00134714       0.00456718       0.00950536 </v>
  </varray>
  <varray name="stress" >
   <v>      -0.41357529       0.00000000       0.00000000 </v>
   <v>       0.00000000      -0.07677308       0.00000000 </v>
   <v>       0.00000000       0.00000000      -1.17129310 </v>
  </varray>
  <energy>
   <i name="e_fr_energy">    -76.86777693 </i>
   <i name="e_wo_entrp">    -76.86777693 </i>
   <i name="e_0_energy">      0.00000000 </i>
  </energy>
  <time name="totalsc">    0.95    0.95</time>
 </calculation>
 <calculation>
  <scstep>
   <time name="dav">    0.18    0.18</time>
   <time name="total">    0.21    0.21</time>
   <energy>
    <i name="alphaZ">     70.01359577 </i>
    <i name="ewald">  -2748.43287590 </i>
    <i name="hartreedc">   -649.85582251 </i>
    <i name="XCdc">    185.41205453 </i>
    <i name="pawpsdc">   7406.11023162 </i>
    <i name="pawaedc">  -7456.48900349 </i>
    <i name="eentropy">      0.00000000 </i>
    <i name="bandstr">   -652.71412676 </i>
    <i name="atom">   3769.08782378 </i>
    <i name="e_fr_energy">    -76.86812295 </i>
    <i name="e_wo_entrp">    -76.86812295 </i>
    <i name="e_0_energy">    -76.86812295 </i>
   </energy>
  </scstep>
  <scstep>
   <time name="diag">    0.05    0.05</time>
   <time name="diis">    0.10    0.10</time>
   <time name="orth">    0.01    0.01</time>
   <time name="total">    0.18    0.18</time>
   <energy>
    <i name="e_fr_energy">    -76.86841646 </i>
    <i name="e_wo_entrp">    -76.86841646 </i>
    <i name="e_0_energy">    -76.86841646 </i>
   </energy>
  </scstep>
  <scstep>
   <time name="diag">    0.05    0.05</time>
   <time name="diis">    0.11    0.11</time>
   <time name="orth">    0.01    0.01</time>
   <time name="total">    0.19    0.19</time>
   <energy>
    <i name="e_fr_energy">    -76.86833802 </i>
    <i name="e_wo_entrp">    -76.86833802 </i>
    <i name="e_0_energy">    -76.86833802 </i>
   </energy>
  </scstep>
  <scstep>
   <time name="diag">    0.05    0.05</time>
   <time name="diis">    0.09    0.09</time>
   <time name="orth">    0.01    0.01</time>
   <time name="total">    0.15    0.15</time>
   <energy>
    <i name="alphaZ">     70.01359577 </i>
    <i name="ewald">  -2748.43287590 </i>
    <i name="hartreedc">   -649.83367926 </i>
    <i name="XCdc">    185.40968222 </i>
    <i name="pawpsdc">   7420.09573862 </i>
    <i name="pawaedc">  -7470.47438618 </i>
    <i name="eentropy">      0.00000000 </i>
    <i name="bandstr">   -652.73422376 </i>
    <i name="atom">   3769.08782378 </i>
    <i name="e_fr_energy">    -76.86832471 </i>
    <i name="e_wo_entrp">    -76.86832471 </i>
    <i name="e_0_energy">    -76.86832471 </i>
   </energy>
  </scstep>
  <structure>
   <crystal>
    <varray name="basis" >
     <v>       7.74329662       0.00000000       0.00000000 </v>
     <v>       0.00000000       6.14188746       0.00000000 </v>
     <v>       0.00000000       0.00000000       5.92627859 </v>
    </varray>
    <i name="volume">    281.84466165 </i>
    <varray name="rec_basis" >
     <v>       0.12914396       0.00000000       0.00000000 </v>
     <v>       0.00000000       0.16281640       0.00000000 </v>
     <v>       0.00000000       0.00000000       0.16873996 </v>
    </varray>
   </crystal>
   <varray name="positions" >
    <v>       0.00000000       0.77172092       0.41709466 </v>
    <v>       0.50000000       0.22827908       0.91709466 </v>
    <v>       0.20919721       0.60351294       0.29933968 </v>
    <v>       0.29080279       0.39648706       0.79933968 </v>
    <v>       0.70919721       0.39648706       0.79933968 </v>
    <v>       0.79080279       0.60351294       0.29933968 </v>
    <v>       0.00000000       0.06560626       0.26046748 </v>
    <v>       0.50000000       0.93439374       0.76046748 </v>
    <v>       0.00000000       0.81596941       0.75685606 </v>
    <v>       0.50000000       0.18403059       0.25685606 </v>
    <v>       0.00000000       0.43513485       0.00529823 </v>
    <v>       0.50000000       0.56486515       0.50529823 </v>
    <v>       0.26794318       0.77005534       0.94502684 </v>
    <v>       0.23205682       0.22994466       0.44502684 </v>
    <v>       0.76794318       0.22994466       0.44502684 </v>
    <v>       0.73205682       0.77005534       0.94502684 </v>
   </varray>
  </structure>
  <varray name="forces" >
   <v>       0.00000000      -0.00566583       0.00190121 </v>
   <v>       0.00000000       0.00566583       0.00190121 </v>
   <v>      -0.01041752       0.01759016      -0.01616868 </v>
   <v>       0.01041752      -0.01759016      -0.01616868 </v>
   <v>      -0.01041752      -0.01759016      -0.01616868 </v>
   <v>       0.01041752       0.01759016      -0.01616868 </v>
   <v>       0.00000000       0.00480417       0.00621429 </v>
   <v>       0.00000000      -0.00480417       0.00621429 </v>
   <v>       0.00000000      -0.04052901      -0.00776840 </v>
   <v>       0.00000000       0.04052901      -0.00776840 </v>
   <v>       0.00000000       0.01376579       0.01003513 </v>
   <v>       0.00000000      -0.01376579       0.01003513 </v>
   <v>      -0.00344355       0.00324088       0.01097756 </v>
   <v>       0.00344355      -0.00324088       0.01097756 </v>
   <v>      -0.00344355      -0.00324088       0.01097756 </v>
   <v>       0.00344355       0.00324088       0.01097756 </v>
  </varray>
  <varray name="stress" >
   <v>      -0.43654935       0.00000000       0.00000000 </v>
   <v>       0.00000000      -0.55500307       0.00000000 </v>
   <v>       0.00000000       0.00000000       0.61740625 </v>
  </varray>
  <energy>
   <i name="e_fr_energy">    -76.86832471 </i>
   <i name="e_wo_entrp">    -76.86832471 </i>
   <i name="e_0_energy">      0.00000000 </i>
  </energy>
  <time name="totalsc">    0.92    0.93</time>
 </calculation>
 <calculation>
  <scstep>
   <time name="dav">    0.20    0.20</time>
   <time name="total">    0.22    0.22</time>
   <energy>
[...]
       <r>   -9.0658    1.0000 </r>
       <r>   -4.9201    1.0000 </r>
       <r>   -4.7301    1.0000 </r>
       <r>   -2.2115    1.0000 </r>
       <r>   -2.1697    1.0000 </r>
       <r>   -2.0725    1.0000 </r>
       <r>   -2.0060    1.0000 </r>
       <r>   -1.7624    1.0000 </r>
       <r>   -1.6144    1.0000 </r>
       <r>   -0.0277    1.0000 </r>
       <r>    0.2205    1.0000 </r>
       <r>    0.3000    1.0000 </r>
       <r>    0.4663    1.0000 </r>
       <r>    0.6281    1.0000 </r>
       <r>    0.7453    1.0000 </r>
       <r>    0.9487    1.0000 </r>
       <r>    1.0425    1.0000 </r>
       <r>    1.1811    1.0000 </r>
       <r>    1.3177    1.0000 </r>
       <r>    1.6879    1.0000 </r>
       <r>    2.1032    1.0000 </r>
       <r>    2.2510    1.0000 </r>
       <r>    2.3546    1.0000 </r>
       <r>    2.4890    1.0000 </r>
       <r>    2.5488    1.0000 </r>
       <r>    5.5752    0.0000 </r>
       <r>    5.9139    0.0000 </r>
       <r>    6.5324    0.0000 </r>
       <r>    6.7841    0.0000 </r>
       <r>    6.8219    0.0000 </r>
       <r>    6.9961    0.0000 </r>
       <r>    7.1346    0.0000 </r>
       <r>    7.2528    0.0000 </r>
       <r>    8.5245    0.0000 </r>
       <r>    8.7008    0.0000 </r>
      </set>
      <set comment="kpoint 8">
       <r>  -41.3757    1.0000 </r>
       <r>  -41.3756    1.0000 </r>
       <r>  -40.6870    1.0000 </r>
       <r>  -40.6870    1.0000 </r>
       <r>  -40.6864    1.0000 </r>
       <r>  -40.6864    1.0000 </r>
       <r>  -12.2323    1.0000 </r>
       <r>  -12.2131    1.0000 </r>
       <r>   -9.4264    1.0000 </r>
       <r>   -9.4091    1.0000 </r>
       <r>   -9.3023    1.0000 </r>
       <r>   -9.2691    1.0000 </r>
       <r>   -9.0971    1.0000 </r>
       <r>   -9.0696    1.0000 </r>
       <r>   -4.8377    1.0000 </r>
       <r>   -4.7580    1.0000 </r>
       <r>   -2.2157    1.0000 </r>
       <r>   -2.1790    1.0000 </r>
       <r>   -2.0000    1.0000 </r>
       <r>   -1.9142    1.0000 </r>
       <r>   -1.7648    1.0000 </r>
       <r>   -1.6863    1.0000 </r>
       <r>   -0.1025    1.0000 </r>
       <r>    0.0217    1.0000 </r>
       <r>    0.2795    1.0000 </r>
       <r>    0.3692    1.0000 </r>
       <r>    0.5881    1.0000 </r>
       <r>    0.6351    1.0000 </r>
       <r>    1.0361    1.0000 </r>
       <r>    1.1123    1.0000 </r>
       <r>    1.3412    1.0000 </r>
       <r>    1.4070    1.0000 </r>
       <r>    1.6765    1.0000 </r>
       <r>    1.9087    1.0000 </r>
       <r>    2.2516    1.0000 </r>
       <r>    2.2896    1.0000 </r>
       <r>    2.5157    1.0000 </r>
       <r>    2.6111    1.0000 </r>
       <r>    5.7428    0.0000 </r>
       <r>    5.9052    0.0000 </r>
       <r>    6.6678    0.0000 </r>
       <r>    6.6868    0.0000 </r>
       <r>    7.0070    0.0000 </r>
       <r>    7.1412    0.0000 </r>
       <r>    7.3098    0.0000 </r>
       <r>    7.4092    0.0000 </r>
       <r>    8.5595    0.0000 </r>
       <r>    8.7208    0.0000 </r>
      </set>
     </set>
    </set>
   </array>
  </eigenvalues>
  <separator name="orbital magnetization" >
   <v name="MAGDIPOLOUT">      0.00000000      0.00000000      0.00000000</v>
  </separator>
  <dos>
   <i name="efermi">      2.82193186 </i>
   <total>
    <array>
     <dimension dim="1">gridpoints</dimension>
     <dimension dim="2">spin</dimension>
     <field>energy</field>
     <field>total</field>
     <field>integrated</field>
     <set>
      <set comment="spin 1">
       <r>   -43.8805     0.0000     0.0000 </r>
       <r>   -43.6968     0.0000     0.0000 </r>
       <r>   -43.5131     0.0000     0.0000 </r>
       <r>   -43.3294     0.0000     0.0000 </r>
       <r>   -43.1458     0.0000     0.0000 </r>
       <r>   -42.9621     0.0000     0.0000 </r>
       <r>   -42.7784     0.0000     0.0000 </r>
       <r>   -42.5947     0.0000     0.0000 </r>
       <r>   -42.4110     0.0000     0.0000 </r>
       <r>   -42.2273     0.0000     0.0000 </r>
       <r>   -42.0436     0.0000     0.0000 </r>
       <r>   -41.8599     0.0000     0.0000 </r>
       <r>   -41.6763     0.0000     0.0000 </r>
       <r>   -41.4926     0.0000     0.0000 </r>
       <r>   -41.3089     0.0000     4.0000 </r>
       <r>   -41.1252     0.0000     4.0000 </r>
       <r>   -40.9415     0.0000     4.0000 </r>
       <r>   -40.7578     0.0000     4.0000 </r>
       <r>   -40.5741     0.0000    12.0000 </r>
       <r>   -40.3905     0.0000    12.0000 </r>
       <r>   -40.2068     0.0000    12.0000 </r>
       <r>   -40.0231     0.0000    12.0000 </r>
       <r>   -39.8394     0.0000    12.0000 </r>
       <r>   -39.6557     0.0000    12.0000 </r>
       <r>   -39.4720     0.0000    12.0000 </r>
       <r>   -39.2883     0.0000    12.0000 </r>
       <r>   -39.1046     0.0000    12.0000 </r>
       <r>   -38.9210     0.0000    12.0000 </r>
       <r>   -38.7373     0.0000    12.0000 </r>
       <r>   -38.5536     0.0000    12.0000 </r>
       <r>   -38.3699     0.0000    12.0000 </r>
       <r>   -38.1862     0.0000    12.0000 </r>
       <r>   -38.0025     0.0000    12.0000 </r>
       <r>   -37.8188     0.0000    12.0000 </r>
       <r>   -37.6351     0.0000    12.0000 </r>
       <r>   -37.4515     0.0000    12.0000 </r>
       <r>   -37.2678     0.0000    12.0000 </r>
       <r>   -37.0841     0.0000    12.0000 </r>
       <r>   -36.9004     0.0000    12.0000 </r>
       <r>   -36.7167     0.0000    12.0000 </r>
       <r>   -36.5330     0.0000    12.0000 </r>
       <r>   -36.3493     0.0000    12.0000 </r>
       <r>   -36.1657     0.0000    12.0000 </r>
       <r>   -35.9820     0.0000    12.0000 </r>
       <r>   -35.7983     0.0000    12.0000 </r>
       <r>   -35.6146     0.0000    12.0000 </r>
       <r>   -35.4309     0.0000    12.0000 </r>
       <r>   -35.2472     0.0000    12.0000 </r>
       <r>   -35.0635     0.0000    12.0000 </r>
       <r>   -34.8798     0.0000    12.0000 </r>
       <r>   -34.6962     0.0000    12.0000 </r>
       <r>   -34.5125     0.0000    12.0000 </r>
       <r>   -34.3288     0.0000    12.0000 </r>
       <r>   -34.1451     0.0000    12.0000 </r>
       <r>   -33.9614     0.0000    12.0000 </r>
       <r>   -33.7777     0.0000    12.0000 </r>
       <r>   -33.5940     0.0000    12.0000 </r>
       <r>   -33.4103     0.0000    12.0000 </r>
       <r>   -33.2267     0.0000    12.0000 </r>
       <r>   -33.0430     0.0000    12.0000 </r>
       <r>   -32.8593     0.0000    12.0000 </r>
       <r>   -32.6756     0.0000    12.0000 </r>
       <r>   -32.4919     0.0000    12.0000 </r>
       <r>   -32.3082     0.0000    12.0000 </r>
       <r>   -32.1245     0.0000    12.0000 </r>
       <r>   -31.9408     0.0000    12.0000 </r>
       <r>   -31.7572     0.0000    12.0000 </r>
       <r>   -31.5735     0.0000    12.0000 </r>
       <r>   -31.3898     0.0000    12.0000 </r>
       <r>   -31.2061     0.0000    12.0000 </r>
       <r>   -31.0224     0.0000    12.0000 </r>
       <r>   -30.8387     0.0000    12.0000 </r>
       <r>   -30.6550     0.0000    12.0000 </r>
       <r>   -30.4714     0.0000    12.0000 </r>
       <r>   -30.2877     0.0000    12.0000 </r>
       <r>   -30.1040     0.0000    12.0000 </r>
       <r>   -29.9203     0.0000    12.0000 </r>
       <r>   -29.7366     0.0000    12.0000 </r>
       <r>   -29.5529     0.0000    12.0000 </r>
       <r>   -29.3692     0.0000    12.0000 </r>
       <r>   -29.1855     0.0000    12.0000 </r>
       <r>   -29.0019     0.0000    12.0000 </r>
       <r>   -28.8182     0.0000    12.0000 </r>
       <r>   -28.6345     0.0000    12.0000 </r>
       <r>   -28.4508     0.0000    12.0000 </r>
       <r>   -28.2671     0.0000    12.0000 </r>
       <r>   -28.0834     0.0000    12.0000 </r>
       <r>   -27.8997     0.0000    12.0000 </r>
       <r>   -27.7160     0.0000    12.0000 </r>
       <r>   -27.5324     0.0000    12.0000 </r>
       <r>   -27.3487     0.0000    12.0000 </r>
       <r>   -27.1650     0.0000    12.0000 </r>
       <r>   -26.9813     0.0000    12.0000 </r>
       <r>   -26.7976     0.0000    12.0000 </r>
       <r>   -26.6139     0.0000    12.0000 </r>
       <r>   -26.4302     0.0000    12.0000 </r>
       <r>   -26.2465     0.0000    12.0000 </r>
       <r>   -26.0629     0.0000    12.0000 </r>
       <r>   -25.8792     0.0000    12.0000 </r>
       <r>   -25.6955     0.0000    12.0000 </r>
       <r>   -25.5118     0.0000    12.0000 </r>
       <r>   -25.3281     0.0000    12.0000 </r>
       <r>   -25.1444     0.0000    12.0000 </r>
       <r>   -24.9607     0.0000    12.0000 </r>
       <r>   -24.7771     0.0000    12.0000 </r>
       <r>   -24.5934     0.0000    12.0000 </r>
       <r>   -24.4097     0.0000    12.0000 </r>
       <r>   -24.2260     0.0000    12.0000 </r>
       <r>   -24.0423     0.0000    12.0000 </r>
       <r>   -23.8586     0.0000    12.0000 </r>
       <r>   -23.6749     0.0000    12.0000 </r>
       <r>   -23.4912     0.0000    12.0000 </r>
       <r>   -23.3076     0.0000    12.0000 </r>
       <r>   -23.1239     0.0000    12.0000 </r>
       <r>   -22.9402     0.0000    12.0000 </r>
       <r>   -22.7565     0.0000    12.0000 </r>
       <r>   -22.5728     0.0000    12.0000 </r>
       <r>   -22.3891     0.0000    12.0000 </r>
       <r>   -22.2054     0.0000    12.0000 </r>
       <r>   -22.0217     0.0000    12.0000 </r>
       <r>   -21.8381     0.0000    12.0000 </r>
       <r>   -21.6544     0.0000    12.0000 </r>
       <r>   -21.4707     0.0000    12.0000 </r>
       <r>   -21.2870     0.0000    12.0000 </r>
       <r>   -21.1033     0.0000    12.0000 </r>
       <r>   -20.9196     0.0000    12.0000 </r>
       <r>   -20.7359     0.0000    12.0000 </r>
       <r>   -20.5522     0.0000    12.0000 </r>
       <r>   -20.3686     0.0000    12.0000 </r>
       <r>   -20.1849     0.0000    12.0000 </r>
       <r>   -20.0012     0.0000    12.0000 </r>
       <r>   -19.8175     0.0000    12.0000 </r>
       <r>   -19.6338     0.0000    12.0000 </r>
       <r>   -19.4501     0.0000    12.0000 </r>
       <r>   -19.2664     0.0000    12.0000 </r>
       <r>   -19.0828     0.0000    12.0000 </r>
       <r>   -18.8991     0.0000    12.0000 </r>
       <r>   -18.7154     0.0000    12.0000 </r>
       <r>   -18.5317     0.0000    12.0000 </r>
       <r>   -18.3480     0.0000    12.0000 </r>
       <r>   -18.1643     0.0000    12.0000 </r>
       <r>   -17.9806     0.0000    12.0000 </r>
       <r>   -17.7969     0.0000    12.0000 </r>
       <r>   -17.6133     0.0000    12.0000 </r>
       <r>   -17.4296     0.0000    12.0000 </r>
       <r>   -17.2459     0.0000    12.0000 </r>
       <r>   -17.0622     0.0000    12.0000 </r>
       <r>   -16.8785     0.0000    12.0000 </r>
       <r>   -16.6948     0.0000    12.0000 </r>
       <r>   -16.5111     0.0000    12.0000 </r>
       <r>   -16.3274     0.0000    12.0000 </r>
       <r>   -16.1438     0.0000    12.0000 </r>
       <r>   -15.9601     0.0000    12.0000 </r>
       <r>   -15.7764     0.0000    12.0000 </r>
       <r>   -15.5927     0.0000    12.0000 </r>
       <r>   -15.4090     0.0000    12.0000 </r>
       <r>   -15.2253     0.0000    12.0000 </r>
       <r>   -15.0416     0.0000    12.0000 </r>
       <r>   -14.8579     0.0000    12.0000 </r>
       <r>   -14.6743     0.0000    12.0000 </r>
       <r>   -14.4906     0.0000    12.0000 </r>
       <r>   -14.3069     0.0000    12.0000 </r>
       <r>   -14.1232     0.0000    12.0000 </r>
       <r>   -13.9395     0.0000    12.0000 </r>
       <r>   -13.7558     0.0000    12.0000 </r>
       <r>   -13.5721     0.0000    12.0000 </r>
       <r>   -13.3885     0.0000    12.0000 </r>
       <r>   -13.2048     0.0000    12.0000 </r>
       <r>   -13.0211     0.0000    12.0000 </r>
       <r>   -12.8374     0.0000    12.0000 </r>
       <r>   -12.6537     0.0000    12.0000 </r>
       <r>   -12.4700     0.0000    12.0000 </r>
       <r>   -12.2863    17.3236    13.1117 </r>
       <r>   -12.1026     0.0000    16.0000 </r>
       <r>   -11.9190     0.0000    16.0000 </r>
       <r>   -11.7353     0.0000    16.0000 </r>
       <r>   -11.5516     0.0000    16.0000 </r>
       <r>   -11.3679     0.0000    16.0000 </r>
       <r>   -11.1842     0.0000    16.0000 </r>
       <r>   -11.0005     0.0000    16.0000 </r>
       <r>   -10.8168     0.0000    16.0000 </r>
       <r>   -10.6331     0.0000    16.0000 </r>
       <r>   -10.4495     0.0000    16.0000 </r>
       <r>   -10.2658     0.0000    16.0000 </r>
       <r>   -10.0821     0.0000    16.0000 </r>
       <r>    -9.8984     0.0000    16.0000 </r>
       <r>    -9.7147     0.0000    16.0000 </r>
       <r>    -9.5310     0.0000    16.0000 </r>
       <r>    -9.3473     9.6584    19.6058 </r>
       <r>    -9.1636    18.2557    23.0747 </r>
       <r>    -8.9800    18.7818    26.9440 </r>
       <r>    -8.7963     0.0000    28.0000 </r>
       <r>    -8.6126     0.0000    28.0000 </r>
       <r>    -8.4289     0.0000    28.0000 </r>
       <r>    -8.2452     0.0000    28.0000 </r>
       <r>    -8.0615     0.0000    28.0000 </r>
       <r>    -7.8778     0.0000    28.0000 </r>
       <r>    -7.6942     0.0000    28.0000 </r>
       <r>    -7.5105     0.0000    28.0000 </r>
       <r>    -7.3268     0.0000    28.0000 </r>
       <r>    -7.1431     0.0000    28.0000 </r>
       <r>    -6.9594     0.0000    28.0000 </r>
       <r>    -6.7757     0.0000    28.0000 </r>
       <r>    -6.5920     0.0000    28.0000 </r>
       <r>    -6.4083     0.0000    28.0000 </r>
       <r>    -6.2247     0.0000    28.0000 </r>
       <r>    -6.0410     0.0000    28.0000 </r>
       <r>    -5.8573     0.0000    28.0000 </r>
       <r>    -5.6736     0.0000    28.0000 </r>
       <r>    -5.4899     0.0000    28.0000 </r>
       <r>    -5.3062     1.6206    28.1281 </r>
       <r>    -5.1225     4.6358    28.7485 </r>
       <r>    -4.9388     7.0242    29.7673 </r>
       <r>    -4.7552    10.6268    31.6809 </r>
       <r>    -4.5715     0.0000    32.0000 </r>
       <r>    -4.3878     0.0000    32.0000 </r>
       <r>    -4.2041     0.0000    32.0000 </r>
       <r>    -4.0204     0.0000    32.0000 </r>
       <r>    -3.8367     0.0000    32.0000 </r>
       <r>    -3.6530     0.0000    32.0000 </r>
       <r>    -3.4694     0.0000    32.0000 </r>
       <r>    -3.2857     0.0000    32.0000 </r>
       <r>    -3.1020     0.0000    32.0000 </r>
       <r>    -2.9183     0.0000    32.0000 </r>
       <r>    -2.7346     0.0000    32.0000 </r>
       <r>    -2.5509     0.0000    32.0000 </r>
       <r>    -2.3672     9.1672    33.1084 </r>
       <r>    -2.1835    18.4234    35.8237 </r>
       <r>    -1.9999     9.8017    39.1167 </r>
       <r>    -1.8162    16.8340    41.1140 </r>
       <r>    -1.6325     2.8730    43.9257 </r>
       <r>    -1.4488     0.0000    44.0000 </r>
       <r>    -1.2651     0.0000    44.0000 </r>
       <r>    -1.0814     0.0000    44.0000 </r>
       <r>    -0.8977     0.0000    44.0000 </r>
       <r>    -0.7140     0.0000    44.0000 </r>
       <r>    -0.5304     0.0000    44.0000 </r>
       <r>    -0.3467     0.0000    44.0000 </r>
       <r>    -0.1630     0.0000    44.0000 </r>
       <r>     0.0207    28.9364    46.1316 </r>
       <r>     0.2044     6.9533    48.1265 </r>
       <r>     0.3881    14.6408    50.1053 </r>
       <r>     0.5718     9.1659    52.3561 </r>
       <r>     0.7555     8.7531    54.8364 </r>
       <r>     0.9391     3.0129    55.9190 </r>
       <r>     1.1228    13.6679    58.0954 </r>
       <r>     1.3065     7.0820    59.9410 </r>
       <r>     1.4902    12.1517    61.3527 </r>
       <r>     1.6739     5.7673    63.8499 </r>
       <r>     1.8576     9.4311    66.0773 </r>
       <r>     2.0413     7.8565    68.1443 </r>
       <r>     2.2249    11.2325    70.3365 </r>
       <r>     2.4086     0.0000    72.0000 </r>
       <r>     2.5923    10.4201    74.4133 </r>
       <r>     2.7760     0.0000    76.0000 </r>
       <r>     2.9597     0.0000    76.0000 </r>
       <r>     3.1434     0.0000    76.0000 </r>
       <r>     3.3271     0.0000    76.0000 </r>
       <r>     3.5108     0.0000    76.0000 </r>
       <r>     3.6944     0.0000    76.0000 </r>
       <r>     3.8781     0.0000    76.0000 </r>
       <r>     4.0618     0.0000    76.0000 </r>
       <r>     4.2455     0.0000    76.0000 </r>
       <r>     4.4292     0.0000    76.0000 </r>
       <r>     4.6129     0.0000    76.0000 </r>
       <r>     4.7966     0.0000    76.0000 </r>
       <r>     4.9803     0.0000    76.0000 </r>
       <r>     5.1639     0.0000    76.0000 </r>
       <r>     5.3476     0.0000    76.0000 </r>
       <r>     5.5313     2.2508    76.1930 </r>
       <r>     5.7150     4.9024    77.0876 </r>
       <r>     5.8987     6.3114    78.2998 </r>
       <r>     6.0824     4.2133    79.3136 </r>
       <r>     6.2661     0.0000    80.0000 </r>
       <r>     6.4498     0.0000    80.0000 </r>
       <r>     6.6334    17.4911    81.4980 </r>
       <r>     6.8171     5.0771    83.8680 </r>
       <r>     7.0008     8.0705    84.8115 </r>
       <r>     7.1845    12.6433    87.1415 </r>
       <r>     7.3682    10.0237    89.1653 </r>
       <r>     7.5519    18.7936    91.4256 </r>
       <r>     7.7356     0.0000    92.0000 </r>
       <r>     7.9192     0.0000    92.0000 </r>
       <r>     8.1029     0.0000    92.0000 </r>
       <r>     8.2866     1.7917    92.1662 </r>
       <r>     8.4703     5.5459    92.8770 </r>
       <r>     8.6540    13.4417    94.4893 </r>
       <r>     8.8377     0.0000    96.0000 </r>
       <r>     9.0214     0.0000    96.0000 </r>
       <r>     9.2051     0.0000    96.0000 </r>
       <r>     9.3887     0.0000    96.0000 </r>
       <r>     9.5724     0.0000    96.0000 </r>
       <r>     9.7561     0.0000    96.0000 </r>
       <r>     9.9398     0.0000    96.0000 </r>
       <r>    10.1235     0.0000    96.0000 </r>
       <r>    10.3072     0.0000    96.0000 </r>
       <r>    10.4909     0.0000    96.0000 </r>
       <r>    10.6746     0.0000    96.0000 </r>
       <r>    10.8582     0.0000    96.0000 </r>
       <r>    11.0419     0.0000    96.0000 </r>
       <r>    11.2256     0.0000    96.0000 </r>
      </set>
     </set>
    </array>
   </total>
  </dos>
 </calculation>
 <structure name="finalpos" >
  <crystal>
   <varray name="basis" >
    <v>       7.74529164       0.00000000       0.00000000 </v>
    <v>       0.00000000       6.13937577       0.00000000 </v>
    <v>       0.00000000       0.00000000       5.93355888 </v>
   </varray>
   <i name="volume">    282.14817606 </i>
   <varray name="rec_basis" >
    <v>       0.12911070       0.00000000       0.00000000 </v>
    <v>       0.00000000       0.16288301       0.00000000 </v>
    <v>       0.00000000       0.00000000       0.16853292 </v>
   </varray>
  </crystal>
  <varray name="positions" >
   <v>       0.00000000       0.77179653       0.41676959 </v>
   <v>       0.50000000       0.22820347       0.91676959 </v>
   <v>       0.20919954       0.60392281       0.29886543 </v>
   <v>       0.29080046       0.39607719       0.79886543 </v>
   <v>       0.70919954       0.39607719       0.79886543 </v>
   <v>       0.79080046       0.60392281       0.29886543 </v>
   <v>       0.00000000       0.06611159       0.26093754 </v>
   <v>       0.50000000       0.93388841       0.76093754 </v>
   <v>       0.00000000       0.81397616       0.75629927 </v>
   <v>       0.50000000       0.18602384       0.25629927 </v>
   <v>       0.00000000       0.43586283       0.00579725 </v>
   <v>       0.50000000       0.56413717       0.50579725 </v>
   <v>       0.26786349       0.77023215       0.94545748 </v>
   <v>       0.23213651       0.22976785       0.44545748 </v>
   <v>       0.76786349       0.22976785       0.44545748 </v>
   <v>       0.73213651       0.77023215       0.94545748 </v>
  </varray>
 </structure>
</modeling>
