unknown system                          
           1
     7.790875    0.000000    0.000000
     0.000000    6.132408    0.000000
     0.000000    0.000000    5.930832
   P    S    Li
   2   8   6
Direct configuration=     1
   0.00000000  0.77138124  0.41675780
   0.50000000  0.22861876  0.91675780
   0.20831662  0.60140021  0.30383537
   0.29168338  0.39859979  0.80383537
   0.70831662  0.39859979  0.80383537
   0.79168338  0.60140021  0.30383537
   0.00000000  0.06371228  0.25684882
   0.50000000  0.93628772  0.75684882
   0.00000000  0.81764131  0.75611764
   0.50000000  0.18235869  0.25611764
   0.00000000  0.43426565  0.00404234
   0.50000000  0.56573435  0.50404234
   0.26659509  0.76804014  0.94350607
   0.23340491  0.23195986  0.44350607
   0.76659509  0.23195986  0.44350607
   0.73340491  0.76804014  0.94350607
unknown system                          
           1
     7.770116    0.000000    0.000000
     0.000000    6.131623    0.000000
     0.000000    0.000000    5.930007
   P    S    Li
   2   8   6
Direct configuration=     2
   0.00000000  0.77108260  0.41732101
   0.50000000  0.22891740  0.91732101
   0.20831090  0.60223193  0.30235511
   0.29168910  0.39776807  0.80235511
   0.70831090  0.39776807  0.80235511
   0.79168910  0.60223193  0.30235511
   0.00000000  0.06402634  0.25765704
   0.50000000  0.93597366  0.75765704
   0.00000000  0.81749780  0.75655422
   0.50000000  0.18250220  0.25655422
   0.00000000  0.43440536  0.00434272
   0.50000000  0.56559464  0.50434272
   0.26692087  0.76856785  0.94393214
   0.23307913  0.23143215  0.44393214
   0.76692087  0.23143215  0.44393214
   0.73307913  0.76856785  0.94393214
unknown system                          
           1
     7.736142    0.000000    0.000000
     0.000000    6.130338    0.000000
     0.000000    0.000000    5.928655
   P    S    Li
   2   8   6
Direct configuration=     3
   0.00000000  0.77059377  0.41824292
   0.50000000  0.22940623  0.91824292
   0.20830152  0.60359334  0.29993208
   0.29169848  0.39640666  0.79993208
   0.70830152  0.39640666  0.79993208
   0.79169848  0.60359334  0.29993208
   0.00000000  0.06454042  0.25897999
   0.50000000  0.93545958  0.75897999
   0.00000000  0.81726288  0.75726885
   0.50000000  0.18273712  0.25726885
   0.00000000  0.43463404  0.00483439
   0.50000000  0.56536596  0.50483439
   0.26745549  0.76943166  0.94462958
   0.23254451  0.23056834  0.44462958
   0.76745549  0.23056834  0.44462958
   0.73254451  0.76943166  0.94462958
unknown system                          
           1
     7.735427    0.000000    0.000000
     0.000000    6.134575    0.000000
     0.000000    0.000000    5.928929
   P    S    Li
   2   8   6
Direct configuration=     4
   0.00000000  0.77148745  0.41856116
   0.50000000  0.22851255  0.91856116
   0.20894980  0.60381743  0.29858359
   0.29105020  0.39618257  0.79858359
   0.70894980  0.39618257  0.79858359
   0.79105020  0.60381743  0.29858359
   0.00000000  0.06480301  0.25998456
   0.50000000  0.93519699  0.75998456
   0.00000000  0.81694455  0.75759289
   0.50000000  0.18305545  0.25759289
   0.00000000  0.43479240  0.00513098
   0.50000000  0.56520760  0.50513098
   0.26782466  0.76997417  0.94500636
   0.23217534  0.23002583  0.44500636
   0.76782466  0.23002583  0.44500636
   0.73217534  0.76997417  0.94500636
unknown system                          
           1
     7.735411    0.000000    0.000000
     0.000000    6.134669    0.000000
     0.000000    0.000000    5.928935
   P    S    Li
   2   8   6
Direct configuration=     5
   0.00000000  0.77150744  0.41856828
   0.50000000  0.22849256  0.91856828
   0.20896431  0.60382244  0.29855341
   0.29103569  0.39617756  0.79855341
   0.70896431  0.39617756  0.79855341
   0.79103569  0.60382244  0.29855341
   0.00000000  0.06480888  0.26000704
   0.50000000  0.93519112  0.76000704
   0.00000000  0.81693744  0.75760014
   0.50000000  0.18306256  0.25760014
   0.00000000  0.43479594  0.00513762
   0.50000000  0.56520406  0.50513762
   0.26783292  0.76998630  0.94501479
   0.23216708  0.23001370  0.44501479
   0.76783292  0.23001370  0.44501479
   0.73216708  0.76998630  0.94501479
unknown system                          
           1
     7.738378    0.000000    0.000000
     0.000000    6.137032    0.000000
     0.000000    0.000000    5.929087
   P    S    Li
   2   8   6
Direct configuration=     6
   0.00000000  0.77160318  0.41802216
   0.50000000  0.22839682  0.91802216
   0.20905488  0.60369643  0.29880448
   0.29094512  0.39630357  0.79880448
   0.70905488  0.39630357  0.79880448
   0.79094512  0.60369643  0.29880448
   0.00000000  0.06500954  0.26013381
   0.50000000  0.93499046  0.76013381
   0.00000000  0.81673319  0.75752058
   0.50000000  0.18326681  0.25752058
   0.00000000  0.43486625  0.00516859
   0.50000000  0.56513375  0.50516859
   0.26786572  0.76999855  0.94499769
   0.23213428  0.23000145  0.44499769
   0.76786572  0.23000145  0.44499769
   0.73213428  0.76999855  0.94499769
unknown system                          
           1
     7.742597    0.000000    0.000000
     0.000000    6.140392    0.000000
     0.000000    0.000000    5.929304
   P    S    Li
   2   8   6
Direct configuration=     7
   0.00000000  0.77173929  0.41724553
   0.50000000  0.22826071  0.91724553
   0.20918364  0.60351730  0.29916152
   0.29081636  0.39648270  0.79916152
   0.70918364  0.39648270  0.79916152
   0.79081636  0.60351730  0.29916152
   0.00000000  0.06529480  0.26031409
   0.50000000  0.93470520  0.76031409
   0.00000000  0.81644284  0.75740745
   0.50000000  0.18355716  0.25740745
   0.00000000  0.43496619  0.00521264
   0.50000000  0.56503381  0.50521264
   0.26791235  0.77001596  0.94497337
   0.23208765  0.22998404  0.44497337
   0.76791235  0.22998404  0.44497337
   0.73208765  0.77001596  0.94497337
unknown system                          
           1
     7.743297    0.000000    0.000000
     0.000000    6.141887    0.000000
     0.000000    0.000000    5.926279
   P    S    Li
   2   8   6
Direct configuration=     8
   0.00000000  0.77172092  0.41709466
   0.50000000  0.22827908  0.91709466
   0.20919721  0.60351294  0.29933968
   0.29080279  0.39648706  0.79933968
   0.70919721  0.39648706  0.79933968
   0.79080279  0.60351294  0.29933968
   0.00000000  0.06560626  0.26046748
   0.50000000  0.93439374  0.76046748
   0.00000000  0.81596941  0.75685606
   0.50000000  0.18403059  0.25685606
   0.00000000  0.43513485  0.00529823
   0.50000000  0.56486515  0.50529823
   0.26794318  0.77005534  0.94502684
   0.23205682  0.22994466  0.44502684
   0.76794318  0.22994466  0.44502684
   0.73205682  0.77005534  0.94502684
unknown system                          
           1
     7.743489    0.000000    0.000000
     0.000000    6.142299    0.000000
     0.000000    0.000000    5.925445
   P    S    Li
   2   8   6
Direct configuration=     9
   0.00000000  0.77171587  0.41705308
   0.50000000  0.22828413  0.91705308
   0.20920095  0.60351174  0.29938878
   0.29079905  0.39648826  0.79938878
   0.70920095  0.39648826  0.79938878
   0.79079905  0.60351174  0.29938878
   0.00000000  0.06569203  0.26050975
   0.50000000  0.93430797  0.76050975
   0.00000000  0.81583904  0.75670411
   0.50000000  0.18416096  0.25670411
   0.00000000  0.43518130  0.00532182
   0.50000000  0.56481870  0.50532182
   0.26795167  0.77006619  0.94504158
   0.23204833  0.22993381  0.44504158
   0.76795167  0.22993381  0.44504158
   0.73204833  0.77006619  0.94504158
unknown system                          
           1
     7.742374    0.000000    0.000000
     0.000000    6.141198    0.000000
     0.000000    0.000000    5.926925
   P    S    Li
   2   8   6
Direct configuration=    10
   0.00000000  0.77169055  0.41695280
   0.50000000  0.22830945  0.91695280
   0.20915342  0.60363768  0.29929587
   0.29084658  0.39636232  0.79929587
   0.70915342  0.39636232  0.79929587
   0.79084658  0.60363768  0.29929587
   0.00000000  0.06577557  0.26058747
   0.50000000  0.93422443  0.76058747
   0.00000000  0.81544719  0.75660968
   0.50000000  0.18455281  0.25660968
   0.00000000  0.43533036  0.00542881
   0.50000000  0.56466964  0.50542881
   0.26793826  0.77010001  0.94513949
   0.23206174  0.22989999  0.44513949
   0.76793826  0.22989999  0.44513949
   0.73206174  0.77010001  0.94513949
unknown system                          
           1
     7.739650    0.000000    0.000000
     0.000000    6.138505    0.000000
     0.000000    0.000000    5.930541
   P    S    Li
   2   8   6
Direct configuration=    11
   0.00000000  0.77162867  0.41670780
   0.50000000  0.22837133  0.91670780
   0.20903726  0.60394552  0.29906886
   0.29096274  0.39605448  0.79906886
   0.70903726  0.39605448  0.79906886
   0.79096274  0.60394552  0.29906886
   0.00000000  0.06597979  0.26077735
   0.50000000  0.93402021  0.76077735
   0.00000000  0.81448936  0.75637896
   0.50000000  0.18551064  0.25637896
   0.00000000  0.43569471  0.00569020
   0.50000000  0.56430529  0.50569020
   0.26790549  0.77018268  0.94537873
   0.23209451  0.22981732  0.44537873
   0.76790549  0.22981732  0.44537873
   0.73209451  0.77018268  0.94537873
unknown system                          
           1
     7.740407    0.000000    0.000000
     0.000000    6.138250    0.000000
     0.000000    0.000000    5.931675
   P    S    Li
   2   8   6
Direct configuration=    12
   0.00000000  0.77167262  0.41669594
   0.50000000  0.22832738  0.91669594
   0.20906224  0.60397996  0.29898957
   0.29093776  0.39602004  0.79898957
   0.70906224  0.39602004  0.79898957
   0.79093776  0.60397996  0.29898957
   0.00000000  0.06603216  0.26083252
   0.50000000  0.93396784  0.76083252
   0.00000000  0.81425937  0.75634235
   0.50000000  0.18574063  0.25634235
   0.00000000  0.43577319  0.00574541
   0.50000000  0.56422681  0.50574541
   0.26789400  0.77020293  0.94542706
   0.23210600  0.22979707  0.44542706
   0.76789400  0.22979707  0.44542706
   0.73210600  0.77020293  0.94542706
unknown system                          
           1
     7.741643    0.000000    0.000000
     0.000000    6.137835    0.000000
     0.000000    0.000000    5.933525
   P    S    Li
   2   8   6
Direct configuration=    13
   0.00000000  0.77174431  0.41667658
   0.50000000  0.22825569  0.91667658
   0.20910298  0.60403614  0.29886027
   0.29089702  0.39596386  0.79886027
   0.70910298  0.39596386  0.79886027
   0.79089702  0.60403614  0.29886027
   0.00000000  0.06611759  0.26092250
   0.50000000  0.93388241  0.76092250
   0.00000000  0.81388417  0.75628263
   0.50000000  0.18611583  0.25628263
   0.00000000  0.43590123  0.00583546
   0.50000000  0.56409877  0.50583546
   0.26787527  0.77023597  0.94550589
   0.23212473  0.22976403  0.44550589
   0.76787527  0.22976403  0.44550589
   0.73212473  0.77023597  0.94550589
unknown system                          
           1
     7.742904    0.000000    0.000000
     0.000000    6.138368    0.000000
     0.000000    0.000000    5.933536
   P    S    Li
   2   8   6
Direct configuration=    14
   0.00000000  0.77176237  0.41670874
   0.50000000  0.22823763  0.91670874
   0.20913637  0.60399696  0.29886205
   0.29086363  0.39600304  0.79886205
   0.70913637  0.39600304  0.79886205
   0.79086363  0.60399696  0.29886205
   0.00000000  0.06611551  0.26092770
   0.50000000  0.93388449  0.76092770
   0.00000000  0.81391598  0.75628839
   0.50000000  0.18608402  0.25628839
   0.00000000  0.43588795  0.00582225
   0.50000000  0.56411205  0.50582225
   0.26787119  0.77023465  0.94548915
   0.23212881  0.22976535  0.44548915
   0.76787119  0.22976535  0.44548915
   0.73212881  0.77023465  0.94548915
unknown system                          
           1
     7.745292    0.000000    0.000000
     0.000000    6.139376    0.000000
     0.000000    0.000000    5.933559
   P    S    Li
   2   8   6
Direct configuration=    15
   0.00000000  0.77179653  0.41676959
   0.50000000  0.22820347  0.91676959
   0.20919954  0.60392281  0.29886543
   0.29080046  0.39607719  0.79886543
   0.70919954  0.39607719  0.79886543
   0.79080046  0.60392281  0.29886543
   0.00000000  0.06611159  0.26093754
   0.50000000  0.93388841  0.76093754
   0.00000000  0.81397616  0.75629927
   0.50000000  0.18602384  0.25629927
   0.00000000  0.43586283  0.00579725
   0.50000000  0.56413717  0.50579725
   0.26786349  0.77023215  0.94545748
   0.23213651  0.22976785  0.44545748
   0.76786349  0.22976785  0.44545748
   0.73213651  0.77023215  0.94545748
