  16  16   0   0
  0.1768350E+02  0.7771431E-09  0.6132657E-09  0.5936612E-09  0.5000000E-15
  1.000000000000000E-004
  CAR 
 unknown system                          
     11.20781534    -43.89586350  301      2.80450432      1.00000000
    -43.896  0.0000E+00  0.0000E+00
    -43.712  0.0000E+00  0.0000E+00
    -43.529  0.0000E+00  0.0000E+00
    -43.345  0.0000E+00  0.0000E+00
    -43.161  0.0000E+00  0.0000E+00
    -42.977  0.0000E+00  0.0000E+00
    -42.794  0.0000E+00  0.0000E+00
    -42.610  0.0000E+00  0.0000E+00
    -42.426  0.0000E+00  0.0000E+00
    -42.243  0.0000E+00  0.0000E+00
    -42.059  0.0000E+00  0.0000E+00
    -41.875  0.0000E+00  0.0000E+00
    -41.692  0.0000E+00  0.0000E+00
    -41.508  0.0000E+00  0.0000E+00
    -41.324  0.0000E+00  0.4000E-01
    -41.141  0.0000E+00  0.4000E-01
    -40.957  0.0000E+00  0.4000E-01
    -40.773  0.0000E+00  0.4000E-01
    -40.590  0.0000E+00  0.1200E+00
    -40.406  0.0000E+00  0.1200E+00
    -40.222  0.0000E+00  0.1200E+00
    -40.039  0.0000E+00  0.1200E+00
    -39.855  0.0000E+00  0.1200E+00
    -39.671  0.0000E+00  0.1200E+00
    -39.488  0.0000E+00  0.1200E+00
    -39.304  0.0000E+00  0.1200E+00
    -39.120  0.0000E+00  0.1200E+00
    -38.937  0.0000E+00  0.1200E+00
    -38.753  0.0000E+00  0.1200E+00
    -38.569  0.0000E+00  0.1200E+00
    -38.385  0.0000E+00  0.1200E+00
    -38.202  0.0000E+00  0.1200E+00
    -38.018  0.0000E+00  0.1200E+00
    -37.834  0.0000E+00  0.1200E+00
    -37.651  0.0000E+00  0.1200E+00
    -37.467  0.0000E+00  0.1200E+00
    -37.283  0.0000E+00  0.1200E+00
    -37.100  0.0000E+00  0.1200E+00
    -36.916  0.0000E+00  0.1200E+00
    -36.732  0.0000E+00  0.1200E+00
    -36.549  0.0000E+00  0.1200E+00
    -36.365  0.0000E+00  0.1200E+00
    -36.181  0.0000E+00  0.1200E+00
    -35.998  0.0000E+00  0.1200E+00
    -35.814  0.0000E+00  0.1200E+00
    -35.630  0.0000E+00  0.1200E+00
    -35.447  0.0000E+00  0.1200E+00
    -35.263  0.0000E+00  0.1200E+00
    -35.079  0.0000E+00  0.1200E+00
    -34.896  0.0000E+00  0.1200E+00
    -34.712  0.0000E+00  0.1200E+00
    -34.528  0.0000E+00  0.1200E+00
    -34.345  0.0000E+00  0.1200E+00
    -34.161  0.0000E+00  0.1200E+00
    -33.977  0.0000E+00  0.1200E+00
    -33.794  0.0000E+00  0.1200E+00
    -33.610  0.0000E+00  0.1200E+00
    -33.426  0.0000E+00  0.1200E+00
    -33.242  0.0000E+00  0.1200E+00
    -33.059  0.0000E+00  0.1200E+00
    -32.875  0.0000E+00  0.1200E+00
    -32.691  0.0000E+00  0.1200E+00
    -32.508  0.0000E+00  0.1200E+00
    -32.324  0.0000E+00  0.1200E+00
    -32.140  0.0000E+00  0.1200E+00
    -31.957  0.0000E+00  0.1200E+00
    -31.773  0.0000E+00  0.1200E+00
    -31.589  0.0000E+00  0.1200E+00
    -31.406  0.0000E+00  0.1200E+00
    -31.222  0.0000E+00  0.1200E+00
    -31.038  0.0000E+00  0.1200E+00
    -30.855  0.0000E+00  0.1200E+00
    -30.671  0.0000E+00  0.1200E+00
    -30.487  0.0000E+00  0.1200E+00
    -30.304  0.0000E+00  0.1200E+00
    -30.120  0.0000E+00  0.1200E+00
    -29.936  0.0000E+00  0.1200E+00
    -29.753  0.0000E+00  0.1200E+00
    -29.569  0.0000E+00  0.1200E+00
    -29.385  0.0000E+00  0.1200E+00
    -29.202  0.0000E+00  0.1200E+00
    -29.018  0.0000E+00  0.1200E+00
    -28.834  0.0000E+00  0.1200E+00
    -28.651  0.0000E+00  0.1200E+00
    -28.467  0.0000E+00  0.1200E+00
    -28.283  0.0000E+00  0.1200E+00
    -28.099  0.0000E+00  0.1200E+00
    -27.916  0.0000E+00  0.1200E+00
    -27.732  0.0000E+00  0.1200E+00
    -27.548  0.0000E+00  0.1200E+00
    -27.365  0.0000E+00  0.1200E+00
    -27.181  0.0000E+00  0.1200E+00
    -26.997  0.0000E+00  0.1200E+00
    -26.814  0.0000E+00  0.1200E+00
    -26.630  0.0000E+00  0.1200E+00
    -26.446  0.0000E+00  0.1200E+00
    -26.263  0.0000E+00  0.1200E+00
    -26.079  0.0000E+00  0.1200E+00
    -25.895  0.0000E+00  0.1200E+00
    -25.712  0.0000E+00  0.1200E+00
    -25.528  0.0000E+00  0.1200E+00
    -25.344  0.0000E+00  0.1200E+00
    -25.161  0.0000E+00  0.1200E+00
    -24.977  0.0000E+00  0.1200E+00
    -24.793  0.0000E+00  0.1200E+00
    -24.610  0.0000E+00  0.1200E+00
    -24.426  0.0000E+00  0.1200E+00
    -24.242  0.0000E+00  0.1200E+00
    -24.059  0.0000E+00  0.1200E+00
    -23.875  0.0000E+00  0.1200E+00
    -23.691  0.0000E+00  0.1200E+00
    -23.508  0.0000E+00  0.1200E+00
    -23.324  0.0000E+00  0.1200E+00
    -23.140  0.0000E+00  0.1200E+00
    -22.956  0.0000E+00  0.1200E+00
    -22.773  0.0000E+00  0.1200E+00
    -22.589  0.0000E+00  0.1200E+00
    -22.405  0.0000E+00  0.1200E+00
    -22.222  0.0000E+00  0.1200E+00
    -22.038  0.0000E+00  0.1200E+00
    -21.854  0.0000E+00  0.1200E+00
    -21.671  0.0000E+00  0.1200E+00
    -21.487  0.0000E+00  0.1200E+00
    -21.303  0.0000E+00  0.1200E+00
    -21.120  0.0000E+00  0.1200E+00
    -20.936  0.0000E+00  0.1200E+00
    -20.752  0.0000E+00  0.1200E+00
    -20.569  0.0000E+00  0.1200E+00
    -20.385  0.0000E+00  0.1200E+00
    -20.201  0.0000E+00  0.1200E+00
    -20.018  0.0000E+00  0.1200E+00
    -19.834  0.0000E+00  0.1200E+00
    -19.650  0.0000E+00  0.1200E+00
    -19.467  0.0000E+00  0.1200E+00
    -19.283  0.0000E+00  0.1200E+00
    -19.099  0.0000E+00  0.1200E+00
    -18.916  0.0000E+00  0.1200E+00
    -18.732  0.0000E+00  0.1200E+00
    -18.548  0.0000E+00  0.1200E+00
    -18.364  0.0000E+00  0.1200E+00
    -18.181  0.0000E+00  0.1200E+00
    -17.997  0.0000E+00  0.1200E+00
    -17.813  0.0000E+00  0.1200E+00
    -17.630  0.0000E+00  0.1200E+00
    -17.446  0.0000E+00  0.1200E+00
    -17.262  0.0000E+00  0.1200E+00
    -17.079  0.0000E+00  0.1200E+00
    -16.895  0.0000E+00  0.1200E+00
    -16.711  0.0000E+00  0.1200E+00
    -16.528  0.0000E+00  0.1200E+00
    -16.344  0.0000E+00  0.1200E+00
    -16.160  0.0000E+00  0.1200E+00
    -15.977  0.0000E+00  0.1200E+00
    -15.793  0.0000E+00  0.1200E+00
    -15.609  0.0000E+00  0.1200E+00
    -15.426  0.0000E+00  0.1200E+00
    -15.242  0.0000E+00  0.1200E+00
    -15.058  0.0000E+00  0.1200E+00
    -14.875  0.0000E+00  0.1200E+00
    -14.691  0.0000E+00  0.1200E+00
    -14.507  0.0000E+00  0.1200E+00
    -14.324  0.0000E+00  0.1200E+00
    -14.140  0.0000E+00  0.1200E+00
    -13.956  0.0000E+00  0.1200E+00
    -13.773  0.0000E+00  0.1200E+00
    -13.589  0.0000E+00  0.1200E+00
    -13.405  0.0000E+00  0.1200E+00
    -13.221  0.0000E+00  0.1200E+00
    -13.038  0.0000E+00  0.1200E+00
    -12.854  0.0000E+00  0.1200E+00
    -12.670  0.0000E+00  0.1200E+00
    -12.487  0.0000E+00  0.1200E+00
    -12.303  0.1723E+00  0.1313E+00
    -12.119  0.0000E+00  0.1600E+00
    -11.936  0.0000E+00  0.1600E+00
    -11.752  0.0000E+00  0.1600E+00
    -11.568  0.0000E+00  0.1600E+00
    -11.385  0.0000E+00  0.1600E+00
    -11.201  0.0000E+00  0.1600E+00
    -11.017  0.0000E+00  0.1600E+00
    -10.834  0.0000E+00  0.1600E+00
    -10.650  0.0000E+00  0.1600E+00
    -10.466  0.0000E+00  0.1600E+00
    -10.283  0.0000E+00  0.1600E+00
    -10.099  0.0000E+00  0.1600E+00
     -9.915  0.0000E+00  0.1600E+00
     -9.732  0.0000E+00  0.1600E+00
     -9.548  0.0000E+00  0.1600E+00
     -9.364  0.8996E-01  0.1961E+00
     -9.181  0.1917E+00  0.2304E+00
     -8.997  0.1772E+00  0.2698E+00
     -8.813  0.0000E+00  0.2800E+00
     -8.630  0.0000E+00  0.2800E+00
     -8.446  0.0000E+00  0.2800E+00
     -8.262  0.0000E+00  0.2800E+00
     -8.078  0.0000E+00  0.2800E+00
     -7.895  0.0000E+00  0.2800E+00
     -7.711  0.0000E+00  0.2800E+00
     -7.527  0.0000E+00  0.2800E+00
     -7.344  0.0000E+00  0.2800E+00
     -7.160  0.0000E+00  0.2800E+00
     -6.976  0.0000E+00  0.2800E+00
     -6.793  0.0000E+00  0.2800E+00
     -6.609  0.0000E+00  0.2800E+00
     -6.425  0.0000E+00  0.2800E+00
     -6.242  0.0000E+00  0.2800E+00
     -6.058  0.0000E+00  0.2800E+00
     -5.874  0.0000E+00  0.2800E+00
     -5.691  0.0000E+00  0.2800E+00
     -5.507  0.0000E+00  0.2800E+00
     -5.323  0.1687E-01  0.2814E+00
     -5.140  0.4766E-01  0.2878E+00
     -4.956  0.7777E-01  0.2980E+00
     -4.772  0.9735E-01  0.3166E+00
     -4.589  0.0000E+00  0.3200E+00
     -4.405  0.0000E+00  0.3200E+00
     -4.221  0.0000E+00  0.3200E+00
     -4.038  0.0000E+00  0.3200E+00
     -3.854  0.0000E+00  0.3200E+00
     -3.670  0.0000E+00  0.3200E+00
     -3.486  0.0000E+00  0.3200E+00
     -3.303  0.0000E+00  0.3200E+00
     -3.119  0.0000E+00  0.3200E+00
     -2.935  0.0000E+00  0.3200E+00
     -2.752  0.0000E+00  0.3200E+00
     -2.568  0.0000E+00  0.3200E+00
     -2.384  0.9035E-01  0.3315E+00
     -2.201  0.1846E+00  0.3593E+00
     -2.017  0.1816E+00  0.3912E+00
     -1.833  0.1688E+00  0.4116E+00
     -1.650  0.2866E-01  0.4393E+00
     -1.466  0.0000E+00  0.4400E+00
     -1.282  0.0000E+00  0.4400E+00
     -1.099  0.0000E+00  0.4400E+00
     -0.915  0.0000E+00  0.4400E+00
     -0.731  0.0000E+00  0.4400E+00
     -0.548  0.0000E+00  0.4400E+00
     -0.364  0.0000E+00  0.4400E+00
     -0.180  0.0000E+00  0.4400E+00
      0.003  0.1349E+00  0.4591E+00
      0.187  0.7194E-01  0.4809E+00
      0.371  0.1389E+00  0.5008E+00
      0.554  0.9147E-01  0.5228E+00
      0.738  0.8952E-01  0.5482E+00
      0.922  0.4049E-01  0.5595E+00
      1.105  0.1256E+00  0.5811E+00
      1.289  0.2411E+00  0.6016E+00
      1.473  0.7650E-01  0.6128E+00
      1.657  0.1075E+00  0.6390E+00
      1.840  0.1291E+00  0.6603E+00
      2.024  0.7912E-01  0.6817E+00
      2.208  0.1111E+00  0.7034E+00
      2.391  0.0000E+00  0.7200E+00
      2.575  0.1064E+00  0.7445E+00
      2.759  0.0000E+00  0.7600E+00
      2.942  0.0000E+00  0.7600E+00
      3.126  0.0000E+00  0.7600E+00
      3.310  0.0000E+00  0.7600E+00
      3.493  0.0000E+00  0.7600E+00
      3.677  0.0000E+00  0.7600E+00
      3.861  0.0000E+00  0.7600E+00
      4.044  0.0000E+00  0.7600E+00
      4.228  0.0000E+00  0.7600E+00
      4.412  0.0000E+00  0.7600E+00
      4.595  0.0000E+00  0.7600E+00
      4.779  0.0000E+00  0.7600E+00
      4.963  0.0000E+00  0.7600E+00
      5.146  0.0000E+00  0.7600E+00
      5.330  0.0000E+00  0.7600E+00
      5.514  0.2222E-01  0.7619E+00
      5.697  0.4861E-01  0.7707E+00
      5.881  0.6678E-01  0.7824E+00
      6.065  0.4017E-01  0.7928E+00
      6.248  0.0000E+00  0.8000E+00
      6.432  0.0000E+00  0.8000E+00
      6.616  0.1544E+00  0.8139E+00
      6.800  0.1099E+00  0.8380E+00
      6.983  0.6111E-01  0.8474E+00
      7.167  0.1353E+00  0.8712E+00
      7.351  0.9757E-01  0.8910E+00
      7.534  0.2122E+00  0.9124E+00
      7.718  0.0000E+00  0.9200E+00
      7.902  0.0000E+00  0.9200E+00
      8.085  0.0000E+00  0.9200E+00
      8.269  0.1985E-01  0.9222E+00
      8.453  0.5723E-01  0.9294E+00
      8.636  0.1777E+00  0.9476E+00
      8.820  0.0000E+00  0.9600E+00
      9.004  0.0000E+00  0.9600E+00
      9.187  0.0000E+00  0.9600E+00
      9.371  0.0000E+00  0.9600E+00
      9.555  0.0000E+00  0.9600E+00
      9.738  0.0000E+00  0.9600E+00
      9.922  0.0000E+00  0.9600E+00
     10.106  0.0000E+00  0.9600E+00
     10.289  0.0000E+00  0.9600E+00
     10.473  0.0000E+00  0.9600E+00
     10.657  0.0000E+00  0.9600E+00
     10.840  0.0000E+00  0.9600E+00
     11.024  0.0000E+00  0.9600E+00
     11.208  0.0000E+00  0.9600E+00
