       N       E                     dE             d eps       ncg     rms          rms(c)
DAV:   1     0.486486167897E+03    0.48649E+03   -0.28242E+04   768   0.130E+03
DAV:   2    -0.117570873809E+02   -0.49824E+03   -0.47596E+03   912   0.302E+02
DAV:   3    -0.713567503205E+02   -0.59600E+02   -0.59117E+02  1080   0.947E+01
DAV:   4    -0.772575683349E+02   -0.59008E+01   -0.58766E+01  1400   0.292E+01
DAV:   5    -0.779473415560E+02   -0.68977E+00   -0.68959E+00  1160   0.652E+00    0.238E+01
RMM:   6    -0.760229142703E+02    0.19244E+01   -0.58514E+00   827   0.552E+00    0.155E+01
RMM:   7    -0.756533845910E+02    0.36953E+00   -0.27046E+00   850   0.416E+00    0.367E+00
RMM:   8    -0.755705116746E+02    0.82873E-01   -0.21610E-01   977   0.156E+00    0.602E-01
RMM:   9    -0.755659303288E+02    0.45813E-02   -0.41056E-02   995   0.640E-01    0.250E-01
RMM:  10    -0.755666043932E+02   -0.67406E-03   -0.11947E-02  1220   0.310E-01    0.146E-01
RMM:  11    -0.755670660494E+02   -0.46166E-03   -0.51687E-03  1155   0.191E-01    0.466E-02
RMM:  12    -0.755673174938E+02   -0.25144E-03   -0.27267E-03  1080   0.132E-01    0.237E-02
RMM:  13    -0.755674482494E+02   -0.13076E-03   -0.13950E-03   855   0.970E-02    0.201E-02
RMM:  14    -0.755675097368E+02   -0.61487E-04   -0.67962E-04   900   0.773E-02    0.973E-03
RMM:  15    -0.755675436807E+02   -0.33944E-04   -0.39016E-04   854   0.640E-02    0.313E-03
RMM:  16    -0.755675586145E+02   -0.14934E-04   -0.17460E-04   707   0.533E-02
   1 F= -.75567559E+02 E0= -.75567559E+02  d E =-.755676E+02
       N       E                     dE             d eps       ncg     rms          rms(c)
DAV:   1    -0.758814708840E+02   -0.31393E+00   -0.49549E+01   784   0.326E+01    0.515E+00
RMM:   2    -0.760337559904E+02   -0.15229E+00   -0.23994E+00   965   0.668E+00    0.135E+00
RMM:   3    -0.760038751205E+02    0.29881E-01   -0.24211E-01  1181   0.192E+00    0.114E+00
RMM:   4    -0.759920451796E+02    0.11830E-01   -0.81573E-02  1065   0.984E-01    0.258E-01
RMM:   5    -0.759940443894E+02   -0.19992E-02   -0.24860E-02  1312   0.518E-01    0.154E-01
RMM:   6    -0.759946025954E+02   -0.55821E-03   -0.12720E-02  1095   0.351E-01    0.971E-02
RMM:   7    -0.759946578094E+02   -0.55214E-04   -0.52315E-03  1188   0.227E-01    0.259E-02
RMM:   8    -0.759948630623E+02   -0.20525E-03   -0.23134E-03  1185   0.151E-01    0.125E-02
RMM:   9    -0.759949695535E+02   -0.10649E-03   -0.11024E-03  1139   0.104E-01    0.784E-03
RMM:  10    -0.759950003641E+02   -0.30811E-04   -0.30132E-04   876   0.705E-02    0.485E-03
RMM:  11    -0.759950053137E+02   -0.49496E-05   -0.75566E-05   665   0.587E-02
   2 F= -.75995005E+02 E0= -.75995005E+02  d E =-.427447E+00
       N       E                     dE             d eps       ncg     rms          rms(c)
DAV:   1    -0.760258564706E+02   -0.30856E-01   -0.51305E+01   768   0.330E+01    0.527E+00
RMM:   2    -0.761730934827E+02   -0.14724E+00   -0.23894E+00   962   0.675E+00    0.137E+00
RMM:   3    -0.761480592055E+02    0.25034E-01   -0.24137E-01  1178   0.192E+00    0.117E+00
RMM:   4    -0.761357702852E+02    0.12289E-01   -0.83571E-02  1065   0.993E-01    0.259E-01
RMM:   5    -0.761377730171E+02   -0.20027E-02   -0.25073E-02  1310   0.519E-01    0.155E-01
RMM:   6    -0.761383910101E+02   -0.61799E-03   -0.13677E-02  1090   0.361E-01    0.103E-01
RMM:   7    -0.761383855305E+02    0.54795E-05   -0.56048E-03  1181   0.233E-01    0.237E-02
RMM:   8    -0.761386040072E+02   -0.21848E-03   -0.24345E-03  1181   0.153E-01    0.118E-02
RMM:   9    -0.761387110690E+02   -0.10706E-03   -0.11062E-03  1127   0.104E-01    0.751E-03
RMM:  10    -0.761387419915E+02   -0.30923E-04   -0.30571E-04   888   0.709E-02    0.490E-03
RMM:  11    -0.761387498000E+02   -0.78084E-05   -0.10627E-04   707   0.590E-02
   3 F= -.76138750E+02 E0= -.76138750E+02  d E =-.571191E+00
       N       E                     dE             d eps       ncg     rms          rms(c)
DAV:   1    -0.762833996929E+02   -0.14466E+00   -0.20841E+01   768   0.209E+01    0.284E+00
RMM:   2    -0.763759344162E+02   -0.92535E-01   -0.10331E+00   960   0.442E+00    0.888E-01
RMM:   3    -0.763757081327E+02    0.22628E-03   -0.10188E-01  1256   0.129E+00    0.101E+00
RMM:   4    -0.763748151585E+02    0.89297E-03   -0.22740E-02  1258   0.498E-01    0.734E-01
RMM:   5    -0.763741361047E+02    0.67905E-03   -0.12993E-02  1124   0.345E-01    0.115E-01
RMM:   6    -0.763745689169E+02   -0.43281E-03   -0.48132E-03  1172   0.205E-01    0.760E-02
RMM:   7    -0.763746816942E+02   -0.11278E-03   -0.22308E-03  1160   0.142E-01    0.182E-02
RMM:   8    -0.763747639061E+02   -0.82212E-04   -0.93273E-04  1120   0.974E-02    0.259E-02
RMM:   9    -0.763747945730E+02   -0.30667E-04   -0.39347E-04   979   0.705E-02    0.725E-03
RMM:  10    -0.763748035639E+02   -0.89909E-05   -0.12469E-04   748   0.566E-02
   4 F= -.76374804E+02 E0= -.76374804E+02  d E =-.236054E+00
       N       E                     dE             d eps       ncg     rms          rms(c)
DAV:   1    -0.763243606114E+02    0.50434E-01   -0.40580E+01   768   0.291E+01    0.415E+00
RMM:   2    -0.765056770047E+02   -0.18132E+00   -0.20259E+00   960   0.618E+00    0.130E+00
RMM:   3    -0.765077593946E+02   -0.20824E-02   -0.20851E-01  1250   0.182E+00    0.145E+00
RMM:   4    -0.765047107650E+02    0.30486E-02   -0.48190E-02  1215   0.728E-01    0.876E-01
RMM:   5    -0.765047220242E+02   -0.11259E-04   -0.22173E-02  1149   0.462E-01    0.136E-01
RMM:   6    -0.765053741568E+02   -0.65213E-03   -0.85600E-03  1246   0.275E-01    0.845E-02
RMM:   7    -0.765056495622E+02   -0.27541E-03   -0.35010E-03  1170   0.175E-01    0.341E-02
RMM:   8    -0.765057820317E+02   -0.13247E-03   -0.13985E-03  1158   0.114E-01    0.200E-02
RMM:   9    -0.765058276692E+02   -0.45637E-04   -0.51699E-04  1098   0.772E-02    0.873E-03
RMM:  10    -0.765058297945E+02   -0.21253E-05   -0.44885E-05   622   0.558E-02
   5 F= -.76505830E+02 E0= -.76505830E+02  d E =-.367080E+00
       N       E                     dE             d eps       ncg     rms          rms(c)
DAV:   1    -0.765051870895E+02    0.64058E-03   -0.42232E-01  1000   0.296E+00    0.372E-01
RMM:   2    -0.765068004148E+02   -0.16133E-02   -0.18086E-02   960   0.595E-01    0.993E-02
RMM:   3    -0.765068565040E+02   -0.56089E-04   -0.19281E-03  1225   0.181E-01    0.963E-02
RMM:   4    -0.765068458579E+02    0.10646E-04   -0.76501E-04  1087   0.859E-02    0.257E-02
RMM:   5    -0.765068478168E+02   -0.19588E-05   -0.67685E-05   588   0.525E-02
   6 F= -.76506848E+02 E0= -.76506848E+02  d E =-.368098E+00
       N       E                     dE             d eps       ncg     rms          rms(c)
DAV:   1    -0.765862786935E+02   -0.79433E-01   -0.71188E+00   768   0.119E+01    0.177E+00
RMM:   2    -0.765997394447E+02   -0.13461E-01   -0.35416E-01   958   0.256E+00    0.542E-01
RMM:   3    -0.765962236945E+02    0.35158E-02   -0.32148E-02  1174   0.724E-01    0.460E-01
RMM:   4    -0.765952728665E+02    0.95083E-03   -0.85533E-03  1137   0.300E-01    0.203E-01
RMM:   5    -0.765954477417E+02   -0.17488E-03   -0.33834E-03  1180   0.181E-01    0.865E-02
RMM:   6    -0.765955569203E+02   -0.10918E-03   -0.15455E-03  1156   0.119E-01    0.265E-02
RMM:   7    -0.765956037046E+02   -0.46784E-04   -0.69795E-04  1133   0.808E-02    0.179E-02
RMM:   8    -0.765956168740E+02   -0.13169E-04   -0.17378E-04   770   0.564E-02
   7 F= -.76595617E+02 E0= -.76595617E+02  d E =-.887691E-01
       N       E                     dE             d eps       ncg     rms          rms(c)
DAV:   1    -0.766416380178E+02   -0.46034E-01   -0.64767E+01   768   0.363E+01    0.670E+00
RMM:   2    -0.767668974299E+02   -0.12526E+00   -0.33474E+00   954   0.776E+00    0.167E+00
RMM:   3    -0.767300629152E+02    0.36835E-01   -0.28048E-01  1151   0.212E+00    0.172E+00
RMM:   4    -0.767216128215E+02    0.84501E-02   -0.72922E-02  1144   0.902E-01    0.766E-01
RMM:   5    -0.767229826940E+02   -0.13699E-02   -0.28578E-02  1245   0.533E-01    0.281E-01
RMM:   6    -0.767237224227E+02   -0.73973E-03   -0.12515E-02  1245   0.346E-01    0.712E-02
RMM:   7    -0.767240986719E+02   -0.37625E-03   -0.53323E-03  1185   0.225E-01    0.427E-02
RMM:   8    -0.767243239349E+02   -0.22526E-03   -0.25037E-03  1175   0.157E-01    0.140E-02
RMM:   9    -0.767244320820E+02   -0.10815E-03   -0.11953E-03  1146   0.110E-01    0.528E-03
RMM:  10    -0.767244805197E+02   -0.48438E-04   -0.50800E-04   967   0.781E-02    0.429E-03
RMM:  11    -0.767244910288E+02   -0.10509E-04   -0.12300E-04   692   0.606E-02
   8 F= -.76724491E+02 E0= -.76724491E+02  d E =-.217643E+00
       N       E                     dE             d eps       ncg     rms          rms(c)
DAV:   1    -0.767246130310E+02   -0.13251E-03   -0.82722E-01   928   0.411E+00    0.550E-01
RMM:   2    -0.767260947298E+02   -0.14817E-02   -0.39203E-02   957   0.862E-01    0.183E-01
RMM:   3    -0.767257905412E+02    0.30419E-03   -0.42487E-03  1180   0.259E-01    0.149E-01
RMM:   4    -0.767257075140E+02    0.83027E-04   -0.12685E-03  1161   0.116E-01    0.669E-02
RMM:   5    -0.767257352207E+02   -0.27707E-04   -0.48477E-04  1119   0.711E-02    0.266E-02
RMM:   6    -0.767257309593E+02    0.42614E-05   -0.59056E-06   538   0.488E-02
   9 F= -.76725731E+02 E0= -.76725731E+02  d E =-.218883E+00
       N       E                     dE             d eps       ncg     rms          rms(c)
DAV:   1    -0.767432316982E+02   -0.17496E-01   -0.43498E+00   784   0.912E+00    0.190E+00
RMM:   2    -0.767608484102E+02   -0.17617E-01   -0.27222E-01   958   0.217E+00    0.430E-01
RMM:   3    -0.767571527208E+02    0.36957E-02   -0.21091E-02  1191   0.586E-01    0.385E-01
RMM:   4    -0.767563833268E+02    0.76939E-03   -0.67849E-03  1158   0.255E-01    0.190E-01
RMM:   5    -0.767564737988E+02   -0.90472E-04   -0.23976E-03  1154   0.152E-01    0.765E-02
RMM:   6    -0.767565676612E+02   -0.93862E-04   -0.10829E-03  1131   0.974E-02    0.164E-02
RMM:   7    -0.767566035524E+02   -0.35891E-04   -0.42477E-04   959   0.671E-02    0.675E-03
RMM:   8    -0.767566113454E+02   -0.77930E-05   -0.10989E-04   711   0.509E-02
  10 F= -.76756611E+02 E0= -.76756611E+02  d E =-.308804E-01
       N       E                     dE             d eps       ncg     rms          rms(c)
DAV:   1    -0.767567646861E+02   -0.16113E-03   -0.37520E-02   992   0.842E-01    0.171E-01
RMM:   2    -0.767569046247E+02   -0.13994E-03   -0.22210E-03   953   0.197E-01    0.375E-02
RMM:   3    -0.767568889152E+02    0.15709E-04   -0.28838E-04  1075   0.676E-02    0.286E-02
RMM:   4    -0.767568766648E+02    0.12250E-04    0.11632E-05   503   0.389E-02
  11 F= -.76756877E+02 E0= -.76756877E+02  d E =-.311457E-01
       N       E                     dE             d eps       ncg     rms          rms(c)
DAV:   1    -0.767714992411E+02   -0.14610E-01   -0.16475E+00   784   0.611E+00    0.619E-01
RMM:   2    -0.767758192030E+02   -0.43200E-02   -0.71078E-02   985   0.117E+00    0.242E-01
RMM:   3    -0.767752205259E+02    0.59868E-03   -0.80051E-03  1163   0.360E-01    0.183E-01
RMM:   4    -0.767749911380E+02    0.22939E-03   -0.35566E-03  1097   0.188E-01    0.475E-02
RMM:   5    -0.767750849536E+02   -0.93816E-04   -0.12691E-03  1204   0.111E-01    0.287E-02
RMM:   6    -0.767751205090E+02   -0.35555E-04   -0.63789E-04  1104   0.745E-02    0.110E-02
RMM:   7    -0.767751252700E+02   -0.47610E-05   -0.13293E-04   725   0.511E-02
  12 F= -.76775125E+02 E0= -.76775125E+02  d E =-.182486E-01
       N       E                     dE             d eps       ncg     rms          rms(c)
DAV:   1    -0.767655935142E+02    0.95270E-02   -0.14903E+01   768   0.183E+01    0.193E+00
RMM:   2    -0.768053020201E+02   -0.39709E-01   -0.64812E-01   986   0.354E+00    0.739E-01
RMM:   3    -0.767994052489E+02    0.58968E-02   -0.70807E-02  1207   0.107E+00    0.572E-01
RMM:   4    -0.767972195682E+02    0.21857E-02   -0.31149E-02  1133   0.544E-01    0.144E-01
RMM:   5    -0.767980320497E+02   -0.81248E-03   -0.10832E-02  1315   0.321E-01    0.897E-02
RMM:   6    -0.767983220892E+02   -0.29004E-03   -0.56016E-03  1147   0.214E-01    0.361E-02
RMM:   7    -0.767984574725E+02   -0.13538E-03   -0.22474E-03  1188   0.144E-01    0.156E-02
RMM:   8    -0.767985500955E+02   -0.92623E-04   -0.10583E-03  1124   0.101E-01    0.734E-03
RMM:   9    -0.767985860953E+02   -0.36000E-04   -0.39502E-04   930   0.713E-02    0.368E-03
RMM:  10    -0.767985937266E+02   -0.76313E-05   -0.10829E-04   692   0.573E-02
  13 F= -.76798594E+02 E0= -.76798594E+02  d E =-.417171E-01
       N       E                     dE             d eps       ncg     rms          rms(c)
DAV:   1    -0.768109449593E+02   -0.12359E-01   -0.19769E+00   784   0.619E+00    0.110E+00
RMM:   2    -0.768080218450E+02    0.29231E-02   -0.11770E-01   963   0.143E+00    0.519E-01
RMM:   3    -0.768050934533E+02    0.29284E-02   -0.17555E-02  1121   0.497E-01    0.318E-01
RMM:   4    -0.768044939682E+02    0.59949E-03   -0.52811E-03  1081   0.242E-01    0.106E-01
RMM:   5    -0.768045924375E+02   -0.98469E-04   -0.18115E-03  1228   0.137E-01    0.523E-02
RMM:   6    -0.768046439840E+02   -0.51546E-04   -0.70358E-04  1104   0.803E-02    0.160E-02
RMM:   7    -0.768046626585E+02   -0.18675E-04   -0.26351E-04   900   0.548E-02    0.100E-02
RMM:   8    -0.768046629084E+02   -0.24986E-06   -0.38278E-05   630   0.421E-02
  14 F= -.76804663E+02 E0= -.76804663E+02  d E =-.606918E-02
       N       E                     dE             d eps       ncg     rms          rms(c)
DAV:   1    -0.768050221616E+02   -0.35950E-03   -0.42689E-02   904   0.910E-01    0.165E-01
RMM:   2    -0.768049735235E+02    0.48638E-04   -0.27213E-03   882   0.205E-01    0.732E-02
RMM:   3    -0.768048710480E+02    0.10248E-03   -0.29649E-04  1045   0.646E-02    0.421E-02
RMM:   4    -0.768048565638E+02    0.14484E-04   -0.69194E-05   632   0.271E-02
  15 F= -.76804857E+02 E0= -.76804857E+02  d E =-.626284E-02
       N       E                     dE             d eps       ncg     rms          rms(c)
DAV:   1    -0.768083933986E+02   -0.35224E-02   -0.12193E+00   768   0.461E+00    0.694E-01
RMM:   2    -0.768113124588E+02   -0.29191E-02   -0.65412E-02   942   0.107E+00    0.220E-01
RMM:   3    -0.768104203897E+02    0.89207E-03   -0.56174E-03  1157   0.298E-01    0.174E-01
RMM:   4    -0.768101805830E+02    0.23981E-03   -0.15641E-03  1069   0.127E-01    0.845E-02
RMM:   5    -0.768102001235E+02   -0.19540E-04   -0.58447E-04  1105   0.741E-02    0.404E-02
RMM:   6    -0.768102112963E+02   -0.11173E-04   -0.17009E-04   786   0.456E-02
  16 F= -.76810211E+02 E0= -.76810211E+02  d E =-.535473E-02
       N       E                     dE             d eps       ncg     rms          rms(c)
DAV:   1    -0.768105588978E+02   -0.35877E-03   -0.26342E-01   848   0.214E+00    0.317E-01
RMM:   2    -0.768111892386E+02   -0.63034E-03   -0.14157E-02   945   0.500E-01    0.988E-02
RMM:   3    -0.768110346266E+02    0.15461E-03   -0.14373E-03  1160   0.148E-01    0.813E-02
RMM:   4    -0.768109970603E+02    0.37566E-04   -0.44740E-04  1043   0.677E-02    0.429E-02
RMM:   5    -0.768109882841E+02    0.87762E-05   -0.13605E-06   513   0.428E-02
  17 F= -.76810988E+02 E0= -.76810988E+02  d E =-.613172E-02
       N       E                     dE             d eps       ncg     rms          rms(c)
DAV:   1    -0.768114312143E+02   -0.43415E-03   -0.12767E+00   768   0.508E+00    0.697E-01
RMM:   2    -0.768155655785E+02   -0.41344E-02   -0.65692E-02   959   0.109E+00    0.212E-01
RMM:   3    -0.768150383749E+02    0.52720E-03   -0.64405E-03  1205   0.319E-01    0.169E-01
RMM:   4    -0.768148631317E+02    0.17524E-03   -0.19123E-03  1140   0.138E-01    0.766E-02
RMM:   5    -0.768149014948E+02   -0.38363E-04   -0.72162E-04  1123   0.829E-02    0.334E-02
RMM:   6    -0.768149216509E+02   -0.20156E-04   -0.28703E-04   911   0.550E-02    0.104E-02
RMM:   7    -0.768149192260E+02    0.24249E-05   -0.26703E-05   597   0.424E-02
  18 F= -.76814919E+02 E0= -.76814919E+02  d E =-.393094E-02
       N       E                     dE             d eps       ncg     rms          rms(c)
DAV:   1    -0.768144161387E+02    0.50551E-03   -0.30913E-01   800   0.250E+00    0.348E-01
RMM:   2    -0.768154114410E+02   -0.99530E-03   -0.15937E-02   959   0.539E-01    0.102E-01
RMM:   3    -0.768153177041E+02    0.93737E-04   -0.17325E-03  1196   0.164E-01    0.817E-02
RMM:   4    -0.768152842271E+02    0.33477E-04   -0.54345E-04  1090   0.739E-02    0.387E-02
RMM:   5    -0.768152810102E+02    0.32169E-05   -0.52379E-05   597   0.476E-02
  19 F= -.76815281E+02 E0= -.76815281E+02  d E =-.429273E-02
       N       E                     dE             d eps       ncg     rms          rms(c)
DAV:   1    -0.768166328339E+02   -0.13486E-02   -0.28409E-01   784   0.245E+00    0.269E-01
RMM:   2    -0.768174356176E+02   -0.80278E-03   -0.12998E-02   961   0.492E-01    0.952E-02
RMM:   3    -0.768173856794E+02    0.49938E-04   -0.16174E-03  1218   0.158E-01    0.821E-02
RMM:   4    -0.768173588965E+02    0.26783E-04   -0.52953E-04  1041   0.715E-02    0.332E-02
RMM:   5    -0.768173549095E+02    0.39870E-05   -0.39333E-05   580   0.465E-02
  20 F= -.76817355E+02 E0= -.76817355E+02  d E =-.207390E-02
       N       E                     dE             d eps       ncg     rms          rms(c)
DAV:   1    -0.768155248398E+02    0.18341E-02   -0.25646E+00   768   0.736E+00    0.826E-01
RMM:   2    -0.768227761207E+02   -0.72513E-02   -0.11683E-01   960   0.147E+00    0.295E-01
RMM:   3    -0.768220489097E+02    0.72721E-03   -0.12976E-02  1216   0.451E-01    0.258E-01
RMM:   4    -0.768217096802E+02    0.33923E-03   -0.39862E-03  1138   0.196E-01    0.101E-01
RMM:   5    -0.768217846086E+02   -0.74928E-04   -0.14788E-03  1141   0.117E-01    0.429E-02
RMM:   6    -0.768218224420E+02   -0.37833E-04   -0.73081E-04  1077   0.794E-02    0.204E-02
RMM:   7    -0.768218405588E+02   -0.18117E-04   -0.28054E-04   923   0.553E-02    0.996E-03
RMM:   8    -0.768218415110E+02   -0.95224E-06   -0.45870E-05   614   0.422E-02
  21 F= -.76821842E+02 E0= -.76821842E+02  d E =-.656050E-02
       N       E                     dE             d eps       ncg     rms          rms(c)
DAV:   1    -0.767968449601E+02    0.24996E-01   -0.10253E+01   768   0.147E+01    0.174E+00
RMM:   2    -0.768267932105E+02   -0.29948E-01   -0.47184E-01   960   0.295E+00    0.616E-01
RMM:   3    -0.768239251570E+02    0.28681E-02   -0.53681E-02  1216   0.909E-01    0.557E-01
RMM:   4    -0.768223769315E+02    0.15482E-02   -0.15704E-02  1118   0.398E-01    0.209E-01
RMM:   5    -0.768226528722E+02   -0.27594E-03   -0.57176E-03  1192   0.234E-01    0.849E-02
RMM:   6    -0.768227742167E+02   -0.12134E-03   -0.28478E-03  1149   0.156E-01    0.422E-02
RMM:   7    -0.768228536757E+02   -0.79459E-04   -0.12240E-03  1099   0.105E-01    0.259E-02
RMM:   8    -0.768229000492E+02   -0.46373E-04   -0.58907E-04  1045   0.743E-02    0.507E-03
RMM:   9    -0.768229147086E+02   -0.14659E-04   -0.17659E-04   712   0.542E-02
  22 F= -.76822915E+02 E0= -.76822915E+02  d E =-.763370E-02
       N       E                     dE             d eps       ncg     rms          rms(c)
DAV:   1    -0.768203264898E+02    0.25736E-02   -0.16103E+00   768   0.583E+00    0.647E-01
RMM:   2    -0.768247658578E+02   -0.44394E-02   -0.72998E-02   954   0.115E+00    0.218E-01
RMM:   3    -0.768239503248E+02    0.81553E-03   -0.61880E-03  1194   0.324E-01    0.185E-01
RMM:   4    -0.768237189395E+02    0.23139E-03   -0.17495E-03  1032   0.126E-01    0.760E-02
RMM:   5    -0.768237433781E+02   -0.24439E-04   -0.64687E-04  1063   0.773E-02    0.327E-02
RMM:   6    -0.768237564077E+02   -0.13030E-04   -0.30952E-04   963   0.518E-02    0.146E-02
RMM:   7    -0.768237503998E+02    0.60079E-05   -0.62497E-06   529   0.369E-02
  23 F= -.76823750E+02 E0= -.76823750E+02  d E =-.846939E-02
       N       E                     dE             d eps       ncg     rms          rms(c)
DAV:   1    -0.768258410292E+02   -0.20846E-02   -0.24947E-01   864   0.231E+00    0.313E-01
RMM:   2    -0.768262328376E+02   -0.39181E-03   -0.11531E-02   969   0.461E-01    0.110E-01
RMM:   3    -0.768260445764E+02    0.18826E-03   -0.11535E-03  1137   0.138E-01    0.773E-02
RMM:   4    -0.768260055397E+02    0.39037E-04   -0.36032E-04   984   0.619E-02    0.287E-02
RMM:   5    -0.768259977481E+02    0.77916E-05    0.19113E-05   478   0.380E-02
  24 F= -.76825998E+02 E0= -.76825998E+02  d E =-.224735E-02
       N       E                     dE             d eps       ncg     rms          rms(c)
DAV:   1    -0.768258963702E+02    0.10917E-03   -0.22154E+00   768   0.693E+00    0.981E-01
RMM:   2    -0.768294251240E+02   -0.35288E-02   -0.10522E-01   972   0.139E+00    0.329E-01
RMM:   3    -0.768281529175E+02    0.12722E-02   -0.13264E-02  1191   0.445E-01    0.231E-01
RMM:   4    -0.768279167875E+02    0.23613E-03   -0.42730E-03  1164   0.204E-01    0.904E-02
RMM:   5    -0.768280112530E+02   -0.94465E-04   -0.15884E-03  1157   0.123E-01    0.453E-02
RMM:   6    -0.768280707756E+02   -0.59523E-04   -0.73422E-04  1078   0.815E-02    0.145E-02
RMM:   7    -0.768280922486E+02   -0.21473E-04   -0.28401E-04   870   0.582E-02    0.781E-03
RMM:   8    -0.768280968860E+02   -0.46375E-05   -0.78596E-05   676   0.465E-02
  25 F= -.76828097E+02 E0= -.76828097E+02  d E =-.434649E-02
       N       E                     dE             d eps       ncg     rms          rms(c)
DAV:   1    -0.768282304471E+02   -0.13820E-03   -0.85665E-02   896   0.136E+00    0.180E-01
RMM:   2    -0.768283759579E+02   -0.14551E-03   -0.41476E-03   938   0.270E-01    0.662E-02
RMM:   3    -0.768282851840E+02    0.90774E-04   -0.35722E-04  1094   0.777E-02    0.448E-02
RMM:   4    -0.768282701285E+02    0.15055E-04   -0.99452E-05   737   0.327E-02
  26 F= -.76828270E+02 E0= -.76828270E+02  d E =-.451973E-02
       N       E                     dE             d eps       ncg     rms          rms(c)
DAV:   1    -0.768294100832E+02   -0.11249E-02   -0.14272E-01   816   0.173E+00    0.178E-01
RMM:   2    -0.768298949505E+02   -0.48487E-03   -0.62982E-03   965   0.339E-01    0.499E-02
RMM:   3    -0.768298423795E+02    0.52571E-04   -0.56834E-04  1111   0.985E-02    0.486E-02
RMM:   4    -0.768298312652E+02    0.11114E-04   -0.14417E-04   841   0.438E-02
  27 F= -.76829831E+02 E0= -.76829831E+02  d E =-.156114E-02
       N       E                     dE             d eps       ncg     rms          rms(c)
DAV:   1    -0.768287381775E+02    0.11042E-02   -0.12708E+00   768   0.518E+00    0.518E-01
RMM:   2    -0.768331858533E+02   -0.44477E-02   -0.57872E-02   966   0.102E+00    0.156E-01
RMM:   3    -0.768328847565E+02    0.30110E-03   -0.65420E-03  1211   0.315E-01    0.164E-01
RMM:   4    -0.768328534334E+02    0.31323E-04   -0.20013E-03  1155   0.137E-01    0.828E-02
RMM:   5    -0.768329152641E+02   -0.61831E-04   -0.92211E-04  1127   0.916E-02    0.264E-02
RMM:   6    -0.768329431985E+02   -0.27934E-04   -0.36292E-04   876   0.625E-02    0.409E-03
RMM:   7    -0.768329501843E+02   -0.69857E-05   -0.11202E-04   727   0.499E-02
  28 F= -.76832950E+02 E0= -.76832950E+02  d E =-.468006E-02
       N       E                     dE             d eps       ncg     rms          rms(c)
DAV:   1    -0.768151862239E+02    0.17757E-01   -0.51081E+00   768   0.104E+01    0.108E+00
RMM:   2    -0.768330746661E+02   -0.17888E-01   -0.23245E-01   963   0.205E+00    0.317E-01
RMM:   3    -0.768317584237E+02    0.13162E-02   -0.25715E-02  1202   0.625E-01    0.350E-01
RMM:   4    -0.768316020823E+02    0.15634E-03   -0.77054E-03  1187   0.274E-01    0.179E-01
RMM:   5    -0.768318332224E+02   -0.23114E-03   -0.36477E-03  1221   0.182E-01    0.529E-02
RMM:   6    -0.768319635051E+02   -0.13028E-03   -0.16487E-03  1132   0.119E-01    0.132E-02
RMM:   7    -0.768320315939E+02   -0.68089E-04   -0.79544E-04  1029   0.858E-02    0.642E-03
RMM:   8    -0.768320612025E+02   -0.29609E-04   -0.33393E-04   834   0.638E-02    0.445E-03
RMM:   9    -0.768320696817E+02   -0.84792E-05   -0.11978E-04   697   0.534E-02
  29 F= -.76832070E+02 E0= -.76832070E+02  d E =-.379955E-02
       N       E                     dE             d eps       ncg     rms          rms(c)
DAV:   1    -0.768283084318E+02    0.37528E-02   -0.17349E+00   768   0.606E+00    0.616E-01
RMM:   2    -0.768344560449E+02   -0.61476E-02   -0.78763E-02   961   0.119E+00    0.174E-01
RMM:   3    -0.768337738537E+02    0.68219E-03   -0.76846E-03  1205   0.350E-01    0.166E-01
RMM:   4    -0.768336662944E+02    0.10756E-03   -0.22371E-03  1155   0.144E-01    0.751E-02
RMM:   5    -0.768337226866E+02   -0.56392E-04   -0.86361E-04  1098   0.882E-02    0.309E-02
RMM:   6    -0.768337509699E+02   -0.28283E-04   -0.37094E-04   911   0.600E-02    0.794E-03
RMM:   7    -0.768337547641E+02   -0.37943E-05   -0.90187E-05   666   0.456E-02
  30 F= -.76833755E+02 E0= -.76833755E+02  d E =-.548464E-02
       N       E                     dE             d eps       ncg     rms          rms(c)
DAV:   1    -0.768351234720E+02   -0.13725E-02   -0.25306E-01   800   0.240E+00    0.291E-01
RMM:   2    -0.768355555536E+02   -0.43208E-03   -0.92980E-03   978   0.429E-01    0.988E-02
RMM:   3    -0.768354425582E+02    0.11300E-03   -0.10317E-03  1172   0.129E-01    0.777E-02
RMM:   4    -0.768353940497E+02    0.48508E-04   -0.31644E-04   941   0.598E-02    0.204E-02
RMM:   5    -0.768353869502E+02    0.70995E-05    0.20957E-05   492   0.380E-02
  31 F= -.76835387E+02 E0= -.76835387E+02  d E =-.163219E-02
       N       E                     dE             d eps       ncg     rms          rms(c)
DAV:   1    -0.768341599871E+02    0.12341E-02   -0.22411E+00   768   0.714E+00    0.881E-01
RMM:   2    -0.768383633492E+02   -0.42034E-02   -0.86591E-02   986   0.130E+00    0.301E-01
RMM:   3    -0.768378469136E+02    0.51644E-03   -0.12802E-02  1221   0.432E-01    0.243E-01
RMM:   4    -0.768375478100E+02    0.29910E-03   -0.43642E-03  1135   0.213E-01    0.678E-02
RMM:   5    -0.768376582575E+02   -0.11045E-03   -0.17005E-03  1159   0.131E-01    0.314E-02
RMM:   6    -0.768377251629E+02   -0.66905E-04   -0.89617E-04  1112   0.919E-02    0.147E-02
RMM:   7    -0.768377524590E+02   -0.27296E-04   -0.42177E-04  1010   0.658E-02    0.860E-03
RMM:   8    -0.768377550595E+02   -0.26005E-05   -0.68757E-05   628   0.488E-02
  32 F= -.76837755E+02 E0= -.76837755E+02  d E =-.400030E-02
       N       E                     dE             d eps       ncg     rms          rms(c)
DAV:   1    -0.768388005428E+02   -0.10481E-02   -0.19733E-01   880   0.213E+00    0.175E-01
RMM:   2    -0.768393435764E+02   -0.54303E-03   -0.78619E-03   998   0.387E-01    0.656E-02
RMM:   3    -0.768393605615E+02   -0.16985E-04   -0.13029E-03  1229   0.138E-01    0.575E-02
RMM:   4    -0.768393607696E+02   -0.20806E-06   -0.49280E-04  1050   0.698E-02    0.223E-02
RMM:   5    -0.768393607337E+02    0.35924E-07   -0.53952E-05   585   0.489E-02
  33 F= -.76839361E+02 E0= -.76839361E+02  d E =-.160567E-02
       N       E                     dE             d eps       ncg     rms          rms(c)
DAV:   1    -0.768388076730E+02    0.55310E-03   -0.17656E+00   768   0.637E+00    0.529E-01
RMM:   2    -0.768434108955E+02   -0.46032E-02   -0.67515E-02   997   0.114E+00    0.193E-01
RMM:   3    -0.768434477909E+02   -0.36895E-04   -0.98791E-03  1244   0.382E-01    0.171E-01
RMM:   4    -0.768433668304E+02    0.80960E-04   -0.34079E-03  1185   0.181E-01    0.690E-02
RMM:   5    -0.768434621396E+02   -0.95309E-04   -0.14465E-03  1151   0.118E-01    0.251E-02
RMM:   6    -0.768435164187E+02   -0.54279E-04   -0.76209E-04  1086   0.836E-02    0.926E-03
RMM:   7    -0.768435365443E+02   -0.20126E-04   -0.25337E-04   769   0.595E-02    0.384E-03
RMM:   8    -0.768435425464E+02   -0.60021E-05   -0.93190E-05   679   0.504E-02
  34 F= -.76843543E+02 E0= -.76843543E+02  d E =-.578749E-02
       N       E                     dE             d eps       ncg     rms          rms(c)
DAV:   1    -0.768304128969E+02    0.13124E-01   -0.70553E+00   768   0.127E+01    0.108E+00
RMM:   2    -0.768488812872E+02   -0.18468E-01   -0.26997E-01   989   0.228E+00    0.395E-01
RMM:   3    -0.768488269725E+02    0.54315E-04   -0.39500E-02  1246   0.761E-01    0.353E-01
RMM:   4    -0.768483843003E+02    0.44267E-03   -0.13061E-02  1182   0.363E-01    0.141E-01
RMM:   5    -0.768487110850E+02   -0.32678E-03   -0.53317E-03  1191   0.231E-01    0.505E-02
RMM:   6    -0.768489030638E+02   -0.19198E-03   -0.28412E-03  1169   0.161E-01    0.194E-02
RMM:   7    -0.768490193390E+02   -0.11628E-03   -0.13653E-03  1084   0.112E-01    0.751E-03
RMM:   8    -0.768490874477E+02   -0.68109E-04   -0.72570E-04  1014   0.822E-02    0.481E-03
RMM:   9    -0.768491115547E+02   -0.24107E-04   -0.26684E-04   804   0.606E-02    0.229E-03
RMM:  10    -0.768491173803E+02   -0.58257E-05   -0.88232E-05   646   0.518E-02
  35 F= -.76849117E+02 E0= -.76849117E+02  d E =-.113623E-01
       N       E                     dE             d eps       ncg     rms          rms(c)
DAV:   1    -0.767690058691E+02    0.80106E-01   -0.27986E+01   768   0.253E+01    0.232E+00
RMM:   2    -0.768461417116E+02   -0.77136E-01   -0.11042E+00   987   0.459E+00    0.818E-01
RMM:   3    -0.768481046267E+02   -0.19629E-02   -0.17585E-01  1247   0.156E+00    0.756E-01
RMM:   4    -0.768461043612E+02    0.20003E-02   -0.51490E-02  1174   0.751E-01    0.308E-01
RMM:   5    -0.768472223962E+02   -0.11180E-02   -0.20230E-02  1181   0.467E-01    0.989E-02
RMM:   6    -0.768479254690E+02   -0.70307E-03   -0.10752E-02  1257   0.324E-01    0.399E-02
RMM:   7    -0.768484001367E+02   -0.47467E-03   -0.54042E-03  1161   0.219E-01    0.183E-02
RMM:   8    -0.768486825882E+02   -0.28245E-03   -0.29730E-03  1082   0.157E-01    0.747E-03
RMM:   9    -0.768488148792E+02   -0.13229E-03   -0.13817E-03  1108   0.111E-01    0.531E-03
RMM:  10    -0.768488868998E+02   -0.72021E-04   -0.76546E-04   969   0.827E-02    0.439E-03
RMM:  11    -0.768489167482E+02   -0.29848E-04   -0.32936E-04   874   0.641E-02    0.312E-03
RMM:  12    -0.768489283871E+02   -0.11639E-04   -0.14712E-04   706   0.534E-02
  36 F= -.76848928E+02 E0= -.76848928E+02  d E =-.111733E-01
       N       E                     dE             d eps       ncg     rms          rms(c)
DAV:   1    -0.768339897814E+02    0.14927E-01   -0.71068E+00   768   0.128E+01    0.104E+00
RMM:   2    -0.768521478390E+02   -0.18158E-01   -0.26824E-01   970   0.226E+00    0.378E-01
RMM:   3    -0.768509441659E+02    0.12037E-02   -0.33829E-02  1218   0.717E-01    0.338E-01
RMM:   4    -0.768503534380E+02    0.59073E-03   -0.10723E-02  1142   0.325E-01    0.137E-01
RMM:   5    -0.768506120275E+02   -0.25859E-03   -0.44647E-03  1190   0.211E-01    0.493E-02
RMM:   6    -0.768507595931E+02   -0.14757E-03   -0.23923E-03  1155   0.145E-01    0.197E-02
RMM:   7    -0.768508474320E+02   -0.87839E-04   -0.10928E-03  1058   0.101E-01    0.700E-03
RMM:   8    -0.768509000414E+02   -0.52609E-04   -0.56541E-04   923   0.748E-02    0.418E-03
RMM:   9    -0.768509176562E+02   -0.17615E-04   -0.20075E-04   744   0.573E-02    0.181E-03
RMM:  10    -0.768509263691E+02   -0.87129E-05   -0.11916E-04   713   0.507E-02
  37 F= -.76850926E+02 E0= -.76850926E+02  d E =-.131713E-01
       N       E                     dE             d eps       ncg     rms          rms(c)
DAV:   1    -0.768478431570E+02    0.30745E-02   -0.29614E+00   768   0.821E+00    0.763E-01
RMM:   2    -0.768542326067E+02   -0.63894E-02   -0.10719E-01   975   0.144E+00    0.294E-01
RMM:   3    -0.768538243321E+02    0.40827E-03   -0.14549E-02  1224   0.467E-01    0.243E-01
RMM:   4    -0.768535474882E+02    0.27684E-03   -0.41853E-03  1144   0.211E-01    0.918E-02
RMM:   5    -0.768536347636E+02   -0.87275E-04   -0.16272E-03  1145   0.130E-01    0.365E-02
RMM:   6    -0.768536943084E+02   -0.59545E-04   -0.89759E-04  1084   0.918E-02    0.176E-02
RMM:   7    -0.768537181303E+02   -0.23822E-04   -0.37215E-04   937   0.648E-02    0.695E-03
RMM:   8    -0.768537284445E+02   -0.10314E-04   -0.13273E-04   706   0.504E-02
  38 F= -.76853728E+02 E0= -.76853728E+02  d E =-.280208E-02
       N       E                     dE             d eps       ncg     rms          rms(c)
DAV:   1    -0.768375640451E+02    0.16154E-01   -0.76320E+00   768   0.132E+01    0.125E+00
RMM:   2    -0.768550959878E+02   -0.17532E-01   -0.28623E-01   982   0.234E+00    0.482E-01
RMM:   3    -0.768547894418E+02    0.30655E-03   -0.43833E-02  1240   0.797E-01    0.406E-01
RMM:   4    -0.768542271490E+02    0.56229E-03   -0.13160E-02  1169   0.379E-01    0.153E-01
RMM:   5    -0.768545425493E+02   -0.31540E-03   -0.53212E-03  1210   0.237E-01    0.590E-02
RMM:   6    -0.768547506222E+02   -0.20807E-03   -0.29000E-03  1172   0.166E-01    0.300E-02
RMM:   7    -0.768548560089E+02   -0.10539E-03   -0.14050E-03  1103   0.117E-01    0.128E-02
RMM:   8    -0.768549301350E+02   -0.74126E-04   -0.80239E-04  1028   0.860E-02    0.445E-03
RMM:   9    -0.768549600630E+02   -0.29928E-04   -0.31966E-04   824   0.635E-02    0.275E-03
RMM:  10    -0.768549694699E+02   -0.94069E-05   -0.12185E-04   666   0.534E-02
  39 F= -.76854969E+02 E0= -.76854969E+02  d E =-.404310E-02
       N       E                     dE             d eps       ncg     rms          rms(c)
DAV:   1    -0.768442376897E+02    0.10722E-01   -0.41050E+00   768   0.973E+00    0.778E-01
RMM:   2    -0.768568650319E+02   -0.12627E-01   -0.14678E-01   992   0.169E+00    0.243E-01
RMM:   3    -0.768573427781E+02   -0.47775E-03   -0.19872E-02  1261   0.558E-01    0.247E-01
RMM:   4    -0.768572851335E+02    0.57645E-04   -0.66125E-03  1212   0.254E-01    0.958E-02
RMM:   5    -0.768575105532E+02   -0.22542E-03   -0.28546E-03  1179   0.166E-01    0.355E-02
RMM:   6    -0.768576076328E+02   -0.97080E-04   -0.15130E-03  1139   0.120E-01    0.893E-03
RMM:   7    -0.768576717143E+02   -0.64082E-04   -0.73033E-04  1025   0.863E-02    0.604E-03
RMM:   8    -0.768577029820E+02   -0.31268E-04   -0.34215E-04   867   0.665E-02    0.318E-03
RMM:   9    -0.768577137438E+02   -0.10762E-04   -0.13502E-04   721   0.552E-02
  40 F= -.76857714E+02 E0= -.76857714E+02  d E =-.274427E-02
       N       E                     dE             d eps       ncg     rms          rms(c)
DAV:   1    -0.768414408887E+02    0.16262E-01   -0.52859E+00   768   0.110E+01    0.887E-01
RMM:   2    -0.768577687739E+02   -0.16328E-01   -0.18951E-01   992   0.192E+00    0.277E-01
RMM:   3    -0.768583959268E+02   -0.62715E-03   -0.25788E-02  1262   0.634E-01    0.282E-01
RMM:   4    -0.768583078312E+02    0.88096E-04   -0.84853E-03  1210   0.291E-01    0.109E-01
RMM:   5    -0.768585968462E+02   -0.28901E-03   -0.36661E-03  1196   0.189E-01    0.406E-02
RMM:   6    -0.768587217519E+02   -0.12491E-03   -0.19567E-03  1164   0.137E-01    0.104E-02
RMM:   7    -0.768588069414E+02   -0.85189E-04   -0.97153E-04  1076   0.980E-02    0.682E-03
RMM:   8    -0.768588529355E+02   -0.45994E-04   -0.49318E-04   944   0.744E-02    0.394E-03
RMM:   9    -0.768588706413E+02   -0.17706E-04   -0.20588E-04   773   0.594E-02    0.228E-03
RMM:  10    -0.768588745440E+02   -0.39027E-05   -0.68187E-05   639   0.520E-02
  41 F= -.76858875E+02 E0= -.76858875E+02  d E =-.390507E-02
       N       E                     dE             d eps       ncg     rms          rms(c)
DAV:   1    -0.768584798772E+02    0.39076E-03   -0.10299E+00   816   0.503E+00    0.324E-01
RMM:   2    -0.768612725633E+02   -0.27927E-02   -0.33948E-02  1005   0.820E-01    0.105E-01
RMM:   3    -0.768614331667E+02   -0.16060E-03   -0.49478E-03  1228   0.281E-01    0.891E-02
RMM:   4    -0.768614655350E+02   -0.32368E-04   -0.18011E-03  1187   0.138E-01    0.331E-02
RMM:   5    -0.768615327275E+02   -0.67192E-04   -0.79468E-04  1092   0.899E-02    0.162E-02
RMM:   6    -0.768615534415E+02   -0.20714E-04   -0.26001E-04   834   0.638E-02    0.665E-03
RMM:   7    -0.768615584755E+02   -0.50340E-05   -0.86128E-05   724   0.534E-02
  42 F= -.76861558E+02 E0= -.76861558E+02  d E =-.268393E-02
       N       E                     dE             d eps       ncg     rms          rms(c)
DAV:   1    -0.768503990368E+02    0.11154E-01   -0.45628E+00   768   0.106E+01    0.694E-01
RMM:   2    -0.768625010357E+02   -0.12102E-01   -0.14819E-01  1001   0.172E+00    0.219E-01
RMM:   3    -0.768632473942E+02   -0.74636E-03   -0.21491E-02  1246   0.580E-01    0.192E-01
RMM:   4    -0.768633393527E+02   -0.91959E-04   -0.73984E-03  1235   0.270E-01    0.729E-02
RMM:   5    -0.768636048116E+02   -0.26546E-03   -0.31908E-03  1204   0.172E-01    0.387E-02
RMM:   6    -0.768637234300E+02   -0.11862E-03   -0.14326E-03  1167   0.120E-01    0.148E-02
RMM:   7    -0.768637795231E+02   -0.56093E-04   -0.65906E-04  1075   0.861E-02    0.505E-03
RMM:   8    -0.768638048830E+02   -0.25360E-04   -0.29093E-04   829   0.661E-02    0.505E-03
RMM:   9    -0.768638120857E+02   -0.72027E-05   -0.10527E-04   716   0.563E-02
  43 F= -.76863812E+02 E0= -.76863812E+02  d E =-.493754E-02
       N       E                     dE             d eps       ncg     rms          rms(c)
DAV:   1    -0.768632417972E+02    0.56309E-03   -0.69712E-01   800   0.420E+00    0.342E-01
RMM:   2    -0.768652286398E+02   -0.19868E-02   -0.23375E-02  1008   0.690E-01    0.915E-02
RMM:   3    -0.768653827273E+02   -0.15409E-03   -0.36206E-03  1260   0.240E-01    0.741E-02
RMM:   4    -0.768654124882E+02   -0.29761E-04   -0.14048E-03  1152   0.118E-01    0.202E-02
RMM:   5    -0.768654554646E+02   -0.42976E-04   -0.54658E-04   995   0.769E-02    0.103E-02
RMM:   6    -0.768654673158E+02   -0.11851E-04   -0.16387E-04   752   0.582E-02
  44 F= -.76865467E+02 E0= -.76865467E+02  d E =-.165523E-02
       N       E                     dE             d eps       ncg     rms          rms(c)
DAV:   1    -0.768645638942E+02    0.89157E-03   -0.39797E-01   864   0.317E+00    0.258E-01
RMM:   2    -0.768657342980E+02   -0.11704E-02   -0.13689E-02  1015   0.525E-01    0.693E-02
RMM:   3    -0.768658239649E+02   -0.89667E-04   -0.21456E-03  1253   0.186E-01    0.552E-02
RMM:   4    -0.768658478606E+02   -0.23896E-04   -0.86449E-04  1129   0.933E-02    0.151E-02
RMM:   5    -0.768658657086E+02   -0.17848E-04   -0.24899E-04   784   0.618E-02    0.781E-03
RMM:   6    -0.768658691737E+02   -0.34651E-05   -0.77425E-05   697   0.523E-02
  45 F= -.76865869E+02 E0= -.76865869E+02  d E =-.205709E-02
       N       E                     dE             d eps       ncg     rms          rms(c)
DAV:   1    -0.768662325070E+02   -0.36680E-03   -0.38289E-02  1016   0.984E-01    0.743E-02
RMM:   2    -0.768662760952E+02   -0.43588E-04   -0.13077E-03  1002   0.166E-01    0.293E-02
RMM:   3    -0.768662772445E+02   -0.11493E-05   -0.30369E-04  1060   0.692E-02    0.149E-02
RMM:   4    -0.768662707564E+02    0.64881E-05    0.18272E-05   466   0.396E-02
  46 F= -.76866271E+02 E0= -.76866271E+02  d E =-.401583E-03
       N       E                     dE             d eps       ncg     rms          rms(c)
DAV:   1    -0.768666883538E+02   -0.41111E-03   -0.34019E-01   784   0.295E+00    0.214E-01
RMM:   2    -0.768670086231E+02   -0.32027E-03   -0.10730E-02  1005   0.472E-01    0.845E-02
RMM:   3    -0.768669868147E+02    0.21808E-04   -0.22564E-03  1193   0.181E-01    0.473E-02
RMM:   4    -0.768670116754E+02   -0.24861E-04   -0.65913E-04  1157   0.873E-02    0.316E-02
RMM:   5    -0.768670211177E+02   -0.94423E-05   -0.18446E-04   726   0.593E-02
  47 F= -.76867021E+02 E0= -.76867021E+02  d E =-.115194E-02
       N       E                     dE             d eps       ncg     rms          rms(c)
DAV:   1    -0.768655288794E+02    0.14828E-02   -0.13625E+00   768   0.589E+00    0.429E-01
RMM:   2    -0.768666904757E+02   -0.11616E-02   -0.42379E-02  1001   0.944E-01    0.171E-01
RMM:   3    -0.768665902279E+02    0.10025E-03   -0.89973E-03  1193   0.360E-01    0.942E-02
RMM:   4    -0.768666796034E+02   -0.89376E-04   -0.25527E-03  1259   0.172E-01    0.651E-02
RMM:   5    -0.768667579275E+02   -0.78324E-04   -0.11735E-03  1164   0.110E-01    0.209E-02
RMM:   6    -0.768668005442E+02   -0.42617E-04   -0.47817E-04   927   0.752E-02    0.511E-03
RMM:   7    -0.768668145399E+02   -0.13996E-04   -0.17257E-04   803   0.589E-02
  48 F= -.76866815E+02 E0= -.76866815E+02  d E =-.945366E-03
       N       E                     dE             d eps       ncg     rms          rms(c)
DAV:   1    -0.768673562015E+02   -0.55566E-03   -0.83586E-02   832   0.126E+00    0.406E-01
RMM:   2    -0.768676755571E+02   -0.31936E-03   -0.75016E-03   923   0.334E-01    0.890E-02
RMM:   3    -0.768674257271E+02    0.24983E-03   -0.48403E-04  1023   0.929E-02    0.491E-02
RMM:   4    -0.768673890014E+02    0.36726E-04   -0.27084E-04   905   0.537E-02    0.188E-02
RMM:   5    -0.768673827453E+02    0.62561E-05    0.86245E-06   464   0.293E-02
  49 F= -.76867383E+02 E0= -.76867383E+02  d E =-.568205E-03
       N       E                     dE             d eps       ncg     rms          rms(c)
DAV:   1    -0.768674574245E+02   -0.68423E-04   -0.48407E-03   920   0.301E-01    0.956E-02
RMM:   2    -0.768674746282E+02   -0.17204E-04   -0.41009E-04   897   0.776E-02    0.210E-02
RMM:   3    -0.768674599193E+02    0.14709E-04   -0.18199E-05   457   0.212E-02
  50 F= -.76867460E+02 E0= -.76867460E+02  d E =-.645379E-03
       N       E                     dE             d eps       ncg     rms          rms(c)
DAV:   1    -0.768676970975E+02   -0.22247E-03   -0.27390E-02   784   0.765E-01    0.899E-02
RMM:   2    -0.768677302352E+02   -0.33138E-04   -0.12096E-03   968   0.150E-01    0.286E-02
RMM:   3    -0.768677125348E+02    0.17700E-04   -0.15309E-04   888   0.503E-02
  51 F= -.76867713E+02 E0= -.76867713E+02  d E =-.252616E-03
       N       E                     dE             d eps       ncg     rms          rms(c)
DAV:   1    -0.768676400605E+02    0.90175E-04   -0.19297E-01   768   0.204E+00    0.230E-01
RMM:   2    -0.768679048082E+02   -0.26475E-03   -0.87243E-03   969   0.402E-01    0.792E-02
RMM:   3    -0.768678116823E+02    0.93126E-04   -0.13690E-03  1174   0.141E-01    0.656E-02
RMM:   4    -0.768678087557E+02    0.29266E-05   -0.42814E-04  1038   0.681E-02    0.367E-02
RMM:   5    -0.768678098992E+02   -0.11435E-05   -0.89455E-05   621   0.481E-02
  52 F= -.76867810E+02 E0= -.76867810E+02  d E =-.349980E-03
       N       E                     dE             d eps       ncg     rms          rms(c)
DAV:   1    -0.768679276434E+02   -0.11889E-03   -0.23084E-02   832   0.702E-01    0.892E-02
RMM:   2    -0.768679239302E+02    0.37132E-05   -0.10611E-03   978   0.139E-01    0.350E-02
RMM:   3    -0.768679160296E+02    0.79006E-05   -0.29881E-04  1057   0.633E-02    0.172E-02
RMM:   4    -0.768679084044E+02    0.76252E-05    0.15848E-05   464   0.377E-02
  53 F= -.76867908E+02 E0= -.76867908E+02  d E =-.985052E-04
       N       E                     dE             d eps       ncg     rms          rms(c)
DAV:   1    -0.768679360972E+02   -0.20068E-04   -0.34331E-02   768   0.857E-01    0.108E-01
RMM:   2    -0.768679202584E+02    0.15839E-04   -0.14671E-03   985   0.165E-01    0.442E-02
RMM:   3    -0.768679053567E+02    0.14902E-04   -0.39248E-04  1115   0.717E-02    0.227E-02
RMM:   4    -0.768678939189E+02    0.11438E-04    0.19811E-05   474   0.393E-02
  54 F= -.76867894E+02 E0= -.76867894E+02  d E =-.840198E-04
