 vasp.5.4.4.18Apr17-6-g9f103f2a35 (build Feb 28 2020 14:15:47) complex          
  
 executed on             LinuxIFC date 2022.08.06  19:10:28
 running on   64 total cores
 distrk:  each k-point on   64 cores,    1 groups
 distr:  one band on NCORES_PER_BAND=  16 cores,    4 groups


--------------------------------------------------------------------------------------------------------


 INCAR:
 POTCAR:    PAW P 26Mar2009                       
 POTCAR:    PAW S 27Mar2009                       
 POTCAR:    PAW Li_sv 10Sep2004                   
 POTCAR:    PAW P 26Mar2009                       
   VRHFIN =P : s2p3                                                             
   LEXCH  = CA                                                                  
   EATOM  =   176.5121 eV,   12.9733 Ry                                         
                                                                                
   TITEL  = PAW P 26Mar2009                                                     
   LULTRA =        F    use ultrasoft PP ?                                      
   IUNSCR =        1    unscreen: 0-lin 1-nonlin 2-no                           
   RPACOR =    1.500    partial core radius                                     
   POMASS =   30.974; ZVAL   =    5.000    mass and valenz                      
   RCORE  =    1.900    outmost cutoff radius                                   
   RWIGS  =    2.330; RWIGS  =    1.233    wigner-seitz radius (au A)           
   ENMAX  =  255.155; ENMIN  =  191.366 eV                                      
   ICORE  =        2    local potential                                         
   LCOR   =        T    correct aug charges                                     
   LPAW   =        T    paw PP                                                  
   EAUG   =  342.924                                                            
   DEXC   =    0.000                                                            
   RMAX   =    1.935    core radius for proj-oper                               
   RAUG   =    1.300    factor for augmentation sphere                          
   RDEP   =    1.931    radius for radial grids                                 
   RDEPT  =    1.780    core radius for aug-charge                              
                                                                                
   Atomic configuration                                                         
    6 entries                                                                   
     n  l   j            E        occ.                                          
     1  0  0.50     -2072.7761   2.0000                                         
     2  0  0.50      -172.9483   2.0000                                         
     2  1  1.50      -124.4644   6.0000                                         
     3  0  0.50       -14.0086   2.0000                                         
     3  1  0.50        -5.6037   3.0000                                         
     3  2  1.50        -6.8029   0.0000                                         
   Description                                                                  
     l       E           TYP  RCUT    TYP  RCUT                                 
     0    -14.0086211     23  1.900                                             
     0    -11.8189335     23  1.900                                             
     1     -5.6037292     23  1.900                                             
     1     -0.3527308     23  1.900                                             
     2     -6.8029130     23  1.900                                             
  local pseudopotential read in
  partial core-charges read in
  partial kinetic energy density read in
  atomic valenz-charges read in
  non local Contribution for L=           0  read in
    real space projection operators read in
  non local Contribution for L=           0  read in
    real space projection operators read in
  non local Contribution for L=           1  read in
    real space projection operators read in
  non local Contribution for L=           1  read in
    real space projection operators read in
    PAW grid and wavefunctions read in
 
   number of l-projection  operators is LMAX  =           4
   number of lm-projection operators is LMMAX =           8
 
 POTCAR:    PAW S 27Mar2009                       
   VRHFIN =S : s2p4                                                             
   LEXCH  = CA                                                                  
   EATOM  =   277.3745 eV,   20.3864 Ry                                         
                                                                                
   TITEL  = PAW S 27Mar2009                                                     
   LULTRA =        F    use ultrasoft PP ?                                      
   IUNSCR =        1    unscreen: 0-lin 1-nonlin 2-no                           
   RPACOR =    1.500    partial core radius                                     
   POMASS =   32.066; ZVAL   =    6.000    mass and valenz                      
   RCORE  =    1.900    outmost cutoff radius                                   
   RWIGS  =    2.200; RWIGS  =    1.164    wigner-seitz radius (au A)           
   ENMAX  =  258.602; ENMIN  =  193.952 eV                                      
   ICORE  =        2    local potential                                         
   LCOR   =        T    correct aug charges                                     
   LPAW   =        T    paw PP                                                  
   EAUG   =  335.092                                                            
   DEXC   =    0.000                                                            
   RMAX   =    1.942    core radius for proj-oper                               
   RAUG   =    1.300    factor for augmentation sphere                          
   RDEP   =    1.954    radius for radial grids                                 
   RDEPT  =    1.744    core radius for aug-charge                              
                                                                                
   Atomic configuration                                                         
    6 entries                                                                   
     n  l   j            E        occ.                                          
     1  0  0.50     -2393.1495   2.0000                                         
     2  0  0.50      -210.5411   2.0000                                         
     2  1  1.50      -156.4410   6.0000                                         
     3  0  0.50       -17.2664   2.0000                                         
     3  1  0.50        -7.1129   4.0000                                         
     3  2  1.50        -8.1635   0.0000                                         
   Description                                                                  
     l       E           TYP  RCUT    TYP  RCUT                                 
     0    -17.2664422     23  1.900                                             
     0    -15.8420823     23  1.900                                             
     1     -7.1129072     23  1.900                                             
     1     -2.8398274     23  1.900                                             
     2     -8.1634956     23  1.900                                             
  local pseudopotential read in
  partial core-charges read in
  partial kinetic energy density read in
  atomic valenz-charges read in
  non local Contribution for L=           0  read in
    real space projection operators read in
  non local Contribution for L=           0  read in
    real space projection operators read in
  non local Contribution for L=           1  read in
    real space projection operators read in
  non local Contribution for L=           1  read in
    real space projection operators read in
    PAW grid and wavefunctions read in
 
   number of l-projection  operators is LMAX  =           4
   number of lm-projection operators is LMMAX =           8
 
 POTCAR:    PAW Li_sv 10Sep2004                   
   VRHFIN =Li: 1s2s                                                             
   LEXCH  = CA                                                                  
   EATOM  =   199.5738 eV,   14.6683 Ry                                         
                                                                                
   TITEL  = PAW Li_sv 10Sep2004                                                 
   LULTRA =        F    use ultrasoft PP ?                                      
   IUNSCR =        0    unscreen: 0-lin 1-nonlin 2-no                           
   RPACOR =    0.000    partial core radius                                     
   POMASS =    7.010; ZVAL   =    3.000    mass and valenz                      
   RCORE  =    1.700    outmost cutoff radius                                   
   RWIGS  =    2.050; RWIGS  =    1.085    wigner-seitz radius (au A)           
   ENMAX  =  498.387; ENMIN  =  373.790 eV                                      
   ICORE  =        2    local potential                                         
   LCOR   =        T    correct aug charges                                     
   LPAW   =        T    paw PP                                                  
   EAUG   =  628.945                                                            
   RMAX   =    1.732    core radius for proj-oper                               
   RAUG   =    1.300    factor for augmentation sphere                          
   RDEP   =    1.728    radius for radial grids                                 
   RDEPT  =    1.329    core radius for aug-charge                              
                                                                                
   Atomic configuration                                                         
    4 entries                                                                   
     n  l   j            E        occ.                                          
     1  0  0.50       -51.0884   2.0000                                         
     2  0  0.50        -2.8766   1.0000                                         
     2  1  0.50        -2.8708   0.0000                                         
     3  2  1.50        -1.3606   0.0000                                         
   Description                                                                  
     l       E           TYP  RCUT    TYP  RCUT                                 
     0    -51.0884324     23  1.400                                             
     0     -2.8766458     23  1.700                                             
     1     -2.8708293     23  1.400                                             
     2     -1.3605826     23  1.400                                             
  local pseudopotential read in
  atomic valenz-charges read in
  non local Contribution for L=           0  read in
    real space projection operators read in
  non local Contribution for L=           0  read in
    real space projection operators read in
  non local Contribution for L=           1  read in
    real space projection operators read in
    PAW grid and wavefunctions read in
 
   number of l-projection  operators is LMAX  =           3
   number of lm-projection operators is LMMAX =           5
 
 Optimization of the real space projectors (new method)

 maximal supplied QI-value         = 19.84
 optimisation between [QCUT,QGAM] = [ 10.32, 20.83] = [ 29.81,121.55] Ry 
 Optimized for a Real-space Cutoff    1.39 Angstroem

   l    n(q)    QCUT    max X(q) W(low)/X(q) W(high)/X(q)  e(spline) 
   0      9    10.318   158.476    0.64E-04    0.80E-04    0.60E-07
   0      9    10.318   128.097    0.63E-04    0.79E-04    0.60E-07
   1      8    10.318    73.217    0.18E-03    0.19E-03    0.20E-06
   1      8    10.318    48.248    0.18E-03    0.19E-03    0.19E-06
 Optimization of the real space projectors (new method)

 maximal supplied QI-value         = 19.84
 optimisation between [QCUT,QGAM] = [ 10.32, 20.83] = [ 29.81,121.55] Ry 
 Optimized for a Real-space Cutoff    1.39 Angstroem

   l    n(q)    QCUT    max X(q) W(low)/X(q) W(high)/X(q)  e(spline) 
   0      9    10.318   180.455    0.73E-04    0.81E-04    0.62E-07
   0      9    10.318   157.733    0.72E-04    0.81E-04    0.62E-07
   1      8    10.318    66.201    0.18E-03    0.20E-03    0.20E-06
   1      8    10.318    49.617    0.18E-03    0.20E-03    0.20E-06
 Optimization of the real space projectors (new method)

 maximal supplied QI-value         = 22.11
 optimisation between [QCUT,QGAM] = [ 10.39, 20.78] = [ 30.24,120.96] Ry 
 Optimized for a Real-space Cutoff    1.20 Angstroem

   l    n(q)    QCUT    max X(q) W(low)/X(q) W(high)/X(q)  e(spline) 
   0      7    10.392    10.443    0.77E-04    0.41E-05    0.30E-07
   0      7    10.392     8.514    0.20E-03    0.36E-04    0.67E-07
   1      7    10.392     5.406    0.20E-03    0.20E-03    0.12E-06
  PAW P 26Mar2009                       :
 energy of atom  1       EATOM= -176.5121
 kinetic energy error for atom=    0.0021 (will be added to EATOM!!)
  PAW S 27Mar2009                       :
 energy of atom  2       EATOM= -277.3745
 kinetic energy error for atom=    0.0041 (will be added to EATOM!!)
  PAW Li_sv 10Sep2004                   :
 energy of atom  3       EATOM= -199.5738
 kinetic energy error for atom=    0.0564 (will be added to EATOM!!)
 
 
 POSCAR: Good luck                               
  positions in cartesian coordinates
  No initial velocities read in
 exchange correlation table for  LEXCH =        2
   RHO(1)=    0.500       N(1)  =     2000
   RHO(2)=  100.500       N(2)  =     4000
 


--------------------------------------------------------------------------------------------------------


 ion  position               nearest neighbor table
   1  0.000  0.272  0.335-   7 2.03   9 2.03   3 2.04   6 2.04
   2  0.500  0.728  0.835-   8 2.03  10 2.03   5 2.04   4 2.04
   3  0.209  0.083  0.261-   1 2.04  14 2.23  12 2.45  13 2.66
   4  0.291  0.917  0.761-   2 2.04  13 2.23  11 2.45  14 2.66
   5  0.709  0.917  0.761-   2 2.04  16 2.23  11 2.45  15 2.66
   6  0.791  0.083  0.261-   1 2.04  15 2.23  12 2.45  16 2.66
   7  0.000  0.526  0.115-   1 2.03  14 2.66  15 2.66
   8  0.500  0.474  0.615-   2 2.03  16 2.66  13 2.66
   9  0.000  0.386  0.656-   1 2.03  13 2.51  16 2.51
  10  0.500  0.614  0.156-   2 2.03  15 2.51  14 2.51
  11  0.000  0.934  0.920-   4 2.45   5 2.45
  12  0.500  0.066  0.420-   6 2.45   3 2.45
  13  0.266  0.267  0.862-   4 2.23   9 2.51   8 2.66   3 2.66
  14  0.234  0.733  0.362-   3 2.23  10 2.51   7 2.66   4 2.66
  15  0.766  0.733  0.362-   6 2.23  10 2.51   7 2.66   5 2.66
  16  0.734  0.267  0.862-   5 2.23   9 2.51   8 2.66   6 2.66
 
  LATTYP: Found a simple orthorhombic cell.
 ALAT       =     5.9366119628
 B/A-ratio  =     1.0330229548
 C/A-ratio  =     1.3090684459
  
  Lattice vectors:
  
 A1 = (   0.0000000000,   0.0000000000,  -5.9366119628)
 A2 = (   0.0000000000,  -6.1326564315,   0.0000000000)
 A3 = (  -7.7714313960,   0.0000000000,   0.0000000000)


Analysis of symmetry for initial positions (statically):
=====================================================================
 Subroutine PRICEL returns:
 Original cell was already a primitive cell.
 

 Routine SETGRP: Setting up the symmetry group for a 
 simple orthorhombic supercell.


 Subroutine GETGRP returns: Found  4 space group operations
 (whereof  2 operations were pure point group operations)
 out of a pool of  8 trial point group operations.


The static configuration has the point symmetry C_1h.
 The point group associated with its full space group is C_2v.


Analysis of symmetry for dynamics (positions and initial velocities):
=====================================================================
 Subroutine PRICEL returns:
 Original cell was already a primitive cell.
 

 Routine SETGRP: Setting up the symmetry group for a 
 simple orthorhombic supercell.


 Subroutine GETGRP returns: Found  4 space group operations
 (whereof  2 operations were pure point group operations)
 out of a pool of  8 trial point group operations.


The dynamic configuration has the point symmetry C_1h.
 The point group associated with its full space group is C_2v.


 Subroutine INISYM returns: Found  4 space group operations
 (whereof  2 operations are pure point group operations),
 and found     1 'primitive' translations

 
 
 KPOINTS: Automatic mesh                          

Automatic generation of k-mesh.
Space group operators:
 irot       det(A)        alpha          n_x          n_y          n_z        tau_x        tau_y        tau_z
    1     1.000000     0.000000     1.000000     0.000000     0.000000     0.000000     0.000000     0.000000
    2    -1.000000   180.000000     1.000000     0.000000     0.000000     0.000000     0.000000     0.000000
    3    -1.000000   180.000000     0.000000     1.000000     0.000000    -0.500000     0.000000    -0.500000
    4     1.000000   180.000000     0.000000     0.000000     1.000000    -0.500000     0.000000    -0.500000
 
 Subroutine IBZKPT returns following result:
 ===========================================
 
 Found      8 irreducible k-points:
 
 Following reciprocal coordinates:
            Coordinates               Weight
  0.125000  0.125000  0.125000      8.000000
  0.375000  0.125000  0.125000      8.000000
  0.125000  0.375000  0.125000      8.000000
  0.375000  0.375000  0.125000      8.000000
  0.125000  0.125000  0.375000      8.000000
  0.375000  0.125000  0.375000      8.000000
  0.125000  0.375000  0.375000      8.000000
  0.375000  0.375000  0.375000      8.000000
 
 Following cartesian coordinates:
            Coordinates               Weight
  0.016085  0.020383  0.021056      8.000000
  0.048254  0.020383  0.021056      8.000000
  0.016085  0.061148  0.021056      8.000000
  0.048254  0.061148  0.021056      8.000000
  0.016085  0.020383  0.063167      8.000000
  0.048254  0.020383  0.063167      8.000000
  0.016085  0.061148  0.063167      8.000000
  0.048254  0.061148  0.063167      8.000000
 
 TETIRR: Found    140 inequivalent tetrahedra from      384


--------------------------------------------------------------------------------------------------------




 Dimension of arrays:
   k-points           NKPTS =      8   k-points in BZ     NKDIM =      8   number of bands    NBANDS=     48
   number of dos      NEDOS =    301   number of ions     NIONS =     16
   non local maximal  LDIM  =      4   non local SUM 2l+1 LMDIM =      8
   total plane-waves  NPLWV =  90720
   max r-space proj   IRMAX =   3638   max aug-charges    IRDMAX=  10300
   dimension x,y,z NGX =    54 NGY =   42 NGZ =   40
   dimension x,y,z NGXF=   108 NGYF=   84 NGZF=   80
   support grid    NGXF=   108 NGYF=   84 NGZF=   80
   ions per type =               2   8   6
   NGX,Y,Z   is equivalent  to a cutoff of  11.55, 11.39, 11.20 a.u.
   NGXF,Y,Z  is equivalent  to a cutoff of  23.10, 22.77, 22.40 a.u.

 SYSTEM =  unknown system                          
 POSCAR =  Good luck                               

 Startparameter for this run:
   NWRITE =      2    write-flag & timer
   PREC   = accura    normal or accurate (medium, high low for compatibility)
   ISTART =      0    job   : 0-new  1-cont  2-samecut
   ICHARG =      2    charge: 1-file 2-atom 10-const
   ISPIN  =      1    spin polarized calculation?
   LNONCOLLINEAR =      F non collinear calculations
   LSORBIT =      F    spin-orbit coupling
   INIWAV =      1    electr: 0-lowe 1-rand  2-diag
   LASPH  =      F    aspherical Exc in radial PAW
   METAGGA=      F    non-selfconsistent MetaGGA calc.

 Electronic Relaxation 1
   ENCUT  =  420.0 eV  30.87 Ry    5.56 a.u.  12.99 10.25  9.92*2*pi/ulx,y,z
   ENINI  =  420.0     initial cutoff
   ENAUG  =  628.9 eV  augmentation charge cutoff
   NELM   =    100;   NELMIN=  2; NELMDL= -5     # of ELM steps 
   EDIFF  = 0.2E-04   stopping-criterion for ELM
   LREAL  =      T    real-space projection
   NLSPLINE    = F    spline interpolate recip. space projectors
   LCOMPAT=      F    compatible to vasp.4.4
   GGA_COMPAT  = T    GGA compatible to vasp.4.4-vasp.4.6
   LMAXPAW     = -100 max onsite density
   LMAXMIX     =    2 max onsite mixed and CHGCAR
   VOSKOWN=      0    Vosko Wilk Nusair interpolation
   ROPT   =   -0.00025  -0.00025  -0.00025
 Ionic relaxation
   EDIFFG = 0.2E-03   stopping-criterion for IOM
   NSW    =    100    number of steps for IOM
   NBLOCK =      1;   KBLOCK =    100    inner block; outer block 
   IBRION =      2    ionic relax: 0-MD 1-quasi-New 2-CG
   NFREE  =      1    steps in history (QN), initial steepest desc. (CG)
   ISIF   =      3    stress and relaxation
   IWAVPR =     11    prediction:  0-non 1-charg 2-wave 3-comb
   ISYM   =      2    0-nonsym 1-usesym 2-fastsym
   LCORR  =      T    Harris-Foulkes like correction to forces

   POTIM  = 0.5000    time-step for ionic-motion
   TEIN   =    0.0    initial temperature
   TEBEG  =    0.0;   TEEND  =   0.0 temperature during run
   SMASS  =  -3.00    Nose mass-parameter (am)
   estimated Nose-frequenzy (Omega)   =  0.10E-29 period in steps =****** mass=  -0.138E-26a.u.
   SCALEE = 1.0000    scale energy and forces
   NPACO  =    256;   APACO  = 16.0  distance and # of slots for P.C.
   PSTRESS=    0.0 pullay stress

  Mass of Ions in am
   POMASS =  30.97 32.07  7.01
  Ionic Valenz
   ZVAL   =   5.00  6.00  3.00
  Atomic Wigner-Seitz radii
   RWIGS  =  -1.00 -1.00 -1.00
  virtual crystal weights 
   VCA    =   1.00  1.00  1.00
   NELECT =      76.0000    total number of electrons
   NUPDOWN=      -1.0000    fix difference up-down

 DOS related values:
   EMIN   =  10.00;   EMAX   =-10.00  energy-range for DOS
   EFERMI =   0.00
   ISMEAR =    -5;   SIGMA  =   0.20  broadening in eV -4-tet -1-fermi 0-gaus

 Electronic relaxation 2 (details)
   IALGO  =     68    algorithm
   LDIAG  =      T    sub-space diagonalisation (order eigenvalues)
   LSUBROT=      F    optimize rotation matrix (better conditioning)
   TURBO    =      0    0=normal 1=particle mesh
   IRESTART =      0    0=no restart 2=restart with 2 vectors
   NREBOOT  =      0    no. of reboots
   NMIN     =      0    reboot dimension
   EREF     =   0.00    reference energy to select bands
   IMIX   =      4    mixing-type and parameters
     AMIX     =   0.40;   BMIX     =  1.00
     AMIX_MAG =   1.60;   BMIX_MAG =  1.00
     AMIN     =   0.10
     WC   =   100.;   INIMIX=   1;  MIXPRE=   1;  MAXMIX= -45

 Intra band minimization:
   WEIMIN = 0.0010     energy-eigenvalue tresh-hold
   EBREAK =  0.10E-06  absolut break condition
   DEPER  =   0.30     relativ break condition  

   TIME   =   0.40     timestep for ELM

  volume/ion in A,a.u.               =      17.68       119.33
  Fermi-wavevector in a.u.,A,eV,Ry     =   1.056290  1.996099 15.180687  1.115749
  Thomas-Fermi vector in A             =   2.191520
 
 Write flags
   LWAVE        =      F    write WAVECAR
   LDOWNSAMPLE  =      F    k-point downsampling of WAVECAR
   LCHARG       =      F    write CHGCAR
   LVTOT        =      F    write LOCPOT, total local potential
   LVHAR        =      F    write LOCPOT, Hartree potential only
   LELF         =      F    write electronic localiz. function (ELF)
   LORBIT       =      0    0 simple, 1 ext, 2 COOP (PROOUT), +10 PAW based schemes


 Dipole corrections
   LMONO  =      F    monopole corrections only (constant potential shift)
   LDIPOL =      F    correct potential (dipole corrections)
   IDIPOL =      0    1-x, 2-y, 3-z, 4-all directions 
   EPSILON=  1.0000000 bulk dielectric constant

 Exchange correlation treatment:
   GGA     =    --    GGA type
   LEXCH   =     2    internal setting for exchange type
   VOSKOWN=      0    Vosko Wilk Nusair interpolation
   LHFCALC =     F    Hartree Fock is set to
   LHFONE  =     F    Hartree Fock one center treatment
   AEXX    =    0.0000 exact exchange contribution

 Linear response parameters
   LEPSILON=     F    determine dielectric tensor
   LRPA    =     F    only Hartree local field effects (RPA)
   LNABLA  =     F    use nabla operator in PAW spheres
   LVEL    =     F    velocity operator in full k-point grid
   LINTERFAST=   F  fast interpolation
   KINTER  =     0    interpolate to denser k-point grid
   CSHIFT  =0.1000    complex shift for real part using Kramers Kronig
   OMEGAMAX=  -1.0    maximum frequency
   DEG_THRESHOLD= 0.2000000E-02 threshold for treating states as degnerate
   RTIME   =   -0.100 relaxation time in fs
  (WPLASMAI=    0.000 imaginary part of plasma frequency in eV, 0.658/RTIME)
   DFIELD  = 0.0000000 0.0000000 0.0000000 field for delta impulse in time
 
 Orbital magnetization related:
   ORBITALMAG=     F  switch on orbital magnetization
   LCHIMAG   =     F  perturbation theory with respect to B field
   DQ        =  0.001000  dq finite difference perturbation B field
   LLRAUG    =     F  two centre corrections for induced B field



--------------------------------------------------------------------------------------------------------


 conjugate gradient relaxation of ions
 charge density and potential will be updated during run
 non-spin polarized calculation
 RMM-DIIS sequential band-by-band and
  variant of blocked Davidson during initial phase
 perform sub-space diagonalisation
    before iterative eigenvector-optimisation
 modified Broyden-mixing scheme, WC =      100.0
 initial mixing is a Kerker type mixing with AMIX =  0.4000 and BMIX =      1.0000
 Hartree-type preconditioning will be used
 using additional bands           10
 real space projection scheme for non local part
 use partial core corrections
 calculate Harris-corrections to forces 
   (improved forces if not selfconsistent)
 use of overlap-Matrix (Vanderbilt PP)
 Fermi weights with tetrahedron method with Bloechl corrections


--------------------------------------------------------------------------------------------------------


  energy-cutoff  :      420.00
  volume of cell :      282.94
      direct lattice vectors                 reciprocal lattice vectors
     7.771431396  0.000000000  0.000000000     0.128676424  0.000000000  0.000000000
     0.000000000  6.132656432  0.000000000     0.000000000  0.163061474  0.000000000
     0.000000000  0.000000000  5.936611963     0.000000000  0.000000000  0.168446246

  length of vectors
     7.771431396  6.132656432  5.936611963     0.128676424  0.163061474  0.168446246


 
 k-points in units of 2pi/SCALE and weight: Automatic mesh                          
   0.01608455  0.02038268  0.02105578       0.125
   0.04825366  0.02038268  0.02105578       0.125
   0.01608455  0.06114805  0.02105578       0.125
   0.04825366  0.06114805  0.02105578       0.125
   0.01608455  0.02038268  0.06316734       0.125
   0.04825366  0.02038268  0.06316734       0.125
   0.01608455  0.06114805  0.06316734       0.125
   0.04825366  0.06114805  0.06316734       0.125
 
 k-points in reciprocal lattice and weights: Automatic mesh                          
   0.12500000  0.12500000  0.12500000       0.125
   0.37500000  0.12500000  0.12500000       0.125
   0.12500000  0.37500000  0.12500000       0.125
   0.37500000  0.37500000  0.12500000       0.125
   0.12500000  0.12500000  0.37500000       0.125
   0.37500000  0.12500000  0.37500000       0.125
   0.12500000  0.37500000  0.37500000       0.125
   0.37500000  0.37500000  0.37500000       0.125
 
 position of ions in fractional coordinates (direct lattice) 
   0.00000000  0.27249789  0.33460600
   0.50000000  0.72750211  0.83460600
   0.20890177  0.08297993  0.26126524
   0.29109823  0.91702007  0.76126524
   0.70890177  0.91702007  0.76126524
   0.79109823  0.08297993  0.26126524
   0.00000000  0.52590243  0.11481892
   0.50000000  0.47409757  0.61481892
   0.00000000  0.38637700  0.65624582
   0.50000000  0.61362300  0.15624582
   0.00000000  0.93368643  0.91990922
   0.50000000  0.06631357  0.41990922
   0.26621287  0.26665959  0.86195138
   0.23378713  0.73334041  0.36195138
   0.76621287  0.73334041  0.36195138
   0.73378713  0.26665959  0.86195138
 
 position of ions in cartesian coordinates  (Angst):
   0.00000000  1.67113596  1.98642596
   3.88571570  4.46152048  4.95473195
   1.62346577  0.50888742  1.55103037
   2.26224993  5.62376901  4.51933635
   5.50918147  5.62376901  4.51933635
   6.14796563  0.50888742  1.55103037
   0.00000000  3.22517893  0.68163535
   3.88571570  2.90747750  3.64994133
   0.00000000  2.36951739  3.89587676
   3.88571570  3.76313905  0.92757078
   0.00000000  5.72597811  5.46114406
   3.88571570  0.40667832  2.49283808
   2.06885507  1.63533164  5.11707089
   1.81686063  4.49732479  2.14876491
   5.95457076  4.49732479  2.14876491
   5.70257633  1.63533164  5.11707089
 


--------------------------------------------------------------------------------------------------------


 k-point  1 :   0.1250 0.1250 0.1250  plane waves:    5535
 k-point  2 :   0.3750 0.1250 0.1250  plane waves:    5516
 k-point  3 :   0.1250 0.3750 0.1250  plane waves:    5520
 k-point  4 :   0.3750 0.3750 0.1250  plane waves:    5532
 k-point  5 :   0.1250 0.1250 0.3750  plane waves:    5538
 k-point  6 :   0.3750 0.1250 0.3750  plane waves:    5539
 k-point  7 :   0.1250 0.3750 0.3750  plane waves:    5531
 k-point  8 :   0.3750 0.3750 0.3750  plane waves:    5544

 maximum and minimum number of plane-waves per node :       356      335

 maximum number of plane-waves:      5544
 maximum index in each direction: 
   IXMAX=   12   IYMAX=   10   IZMAX=    9
   IXMIN=  -13   IYMIN=  -10   IZMIN=  -10


 real space projection operators:
  total allocation   :       2705.05 KBytes
  max/ min on nodes  :        206.33        146.09


 parallel 3D FFT for wavefunctions:
    minimum data exchange during FFTs selected (reduces bandwidth)
 parallel 3D FFT for charge:
    minimum data exchange during FFTs selected (reduces bandwidth)


 total amount of memory used by VASP MPI-rank0    33582. kBytes
=======================================================================

   base      :      30000. kBytes
   nonlr-proj:       1236. kBytes
   fftplans  :        656. kBytes
   grid      :       1147. kBytes
   one-center:          3. kBytes
   wavefun   :        540. kBytes
 
     INWAV:  cpu time    0.0000: real time    0.0000
 Broyden mixing: mesh for mixing (old mesh)
   NGX = 25   NGY = 21   NGZ = 19
  (NGX  =108   NGY  = 84   NGZ  = 80)
  gives a total of   9975 points

 initial charge density was supplied:
 charge density of overlapping atoms calculated
 number of electron      76.0000000 magnetization 
 keeping initial charge density in first step


--------------------------------------------------------------------------------------------------------


 Maximum index for non-local projection operator          440
 Maximum index for augmentation-charges          545 (set IRDMAX)


--------------------------------------------------------------------------------------------------------


 First call to EWALD:  gamma=   0.270
 Maximum number of real-space cells 2x 3x 3
 Maximum number of reciprocal cells 3x 3x 3

    FEWALD:  cpu time    0.0018: real time    0.0018


--------------------------------------- Iteration      1(   1)  ---------------------------------------


    POTLOK:  cpu time    0.0063: real time    0.0108
    SETDIJ:  cpu time    0.0057: real time    0.0072
     EDDAV:  cpu time    0.1973: real time    0.2187
 BZINTS: Fermi energy: 14.935443; 76.000000 electrons
         Band energy:-112.889984;  BLOECHL correction: -0.088458
       DOS:  cpu time    0.0088: real time    0.0092
    --------------------------------------------
      LOOP:  cpu time    0.2181: real time    0.2460

 eigenvalue-minimisations  :   768
 total energy-change (2. order) : 0.4864862E+03  (-0.2824237E+04)
 number of electron      76.0000000 magnetization 
 augmentation part       76.0000000 magnetization 

 Free energy of the ion-electron system (eV)
  ---------------------------------------------------
  alpha Z        PSCENC =        69.74352290
  Ewald energy   TEWEN  =     -2773.22408606
  -Hartree energ DENC   =      -601.33944673
  -exchange      EXHF   =         0.00000000
  -V(xc)+E(xc)   XCENC  =       182.00605856
  PAW double counting   =      2494.22442938    -2541.12215007
  entropy T*S    EENTRO =         0.00000000
  eigenvalues    EBANDS =      -112.88998387
  atomic energy  EATOM  =      3769.08782378
  Solvation  Ediel_sol  =         0.00000000
  ---------------------------------------------------
  free energy    TOTEN  =       486.48616790 eV

  energy without entropy =      486.48616790  energy(sigma->0) =      486.48616790


--------------------------------------------------------------------------------------------------------




--------------------------------------- Iteration      1(   2)  ---------------------------------------


     EDDAV:  cpu time    0.1956: real time    0.1960
 BZINTS: Fermi energy:  5.148659; 76.000000 electrons
         Band energy:-611.133239;  BLOECHL correction:  0.000000
       DOS:  cpu time    0.0015: real time    0.0015
    --------------------------------------------
      LOOP:  cpu time    0.1971: real time    0.1975

 eigenvalue-minimisations  :   912
 total energy-change (2. order) :-0.4982433E+03  (-0.4759606E+03)
 number of electron      76.0000000 magnetization 
 augmentation part       76.0000000 magnetization 

 Free energy of the ion-electron system (eV)
  ---------------------------------------------------
  alpha Z        PSCENC =        69.74352290
  Ewald energy   TEWEN  =     -2773.22408606
  -Hartree energ DENC   =      -601.33944673
  -exchange      EXHF   =         0.00000000
  -V(xc)+E(xc)   XCENC  =       182.00605856
  PAW double counting   =      2494.22442938    -2541.12215007
  entropy T*S    EENTRO =         0.00000000
  eigenvalues    EBANDS =      -611.13323915
  atomic energy  EATOM  =      3769.08782378
  Solvation  Ediel_sol  =         0.00000000
  ---------------------------------------------------
  free energy    TOTEN  =       -11.75708738 eV

  energy without entropy =      -11.75708738  energy(sigma->0) =      -11.75708738


--------------------------------------------------------------------------------------------------------




--------------------------------------- Iteration      1(   3)  ---------------------------------------


     EDDAV:  cpu time    0.2268: real time    0.2278
 BZINTS: Fermi energy:  2.642807; 76.000000 electrons
         Band energy:-670.732902;  BLOECHL correction:  0.000000
       DOS:  cpu time    0.0014: real time    0.0014
    --------------------------------------------
      LOOP:  cpu time    0.2282: real time    0.2293

 eigenvalue-minimisations  :  1080
 total energy-change (2. order) :-0.5959966E+02  (-0.5911738E+02)
 number of electron      76.0000000 magnetization 
 augmentation part       76.0000000 magnetization 

 Free energy of the ion-electron system (eV)
  ---------------------------------------------------
  alpha Z        PSCENC =        69.74352290
  Ewald energy   TEWEN  =     -2773.22408606
  -Hartree energ DENC   =      -601.33944673
  -exchange      EXHF   =         0.00000000
  -V(xc)+E(xc)   XCENC  =       182.00605856
  PAW double counting   =      2494.22442938    -2541.12215007
  entropy T*S    EENTRO =         0.00000000
  eigenvalues    EBANDS =      -670.73290209
  atomic energy  EATOM  =      3769.08782378
  Solvation  Ediel_sol  =         0.00000000
  ---------------------------------------------------
  free energy    TOTEN  =       -71.35675032 eV

  energy without entropy =      -71.35675032  energy(sigma->0) =      -71.35675032


--------------------------------------------------------------------------------------------------------




--------------------------------------- Iteration      1(   4)  ---------------------------------------


     EDDAV:  cpu time    0.2802: real time    0.2805
 BZINTS: Fermi energy:  2.524701; 76.000000 electrons
         Band energy:-676.633720;  BLOECHL correction:  0.000000
       DOS:  cpu time    0.0012: real time    0.0012
    --------------------------------------------
      LOOP:  cpu time    0.2814: real time    0.2817

 eigenvalue-minimisations  :  1400
 total energy-change (2. order) :-0.5900818E+01  (-0.5876611E+01)
 number of electron      76.0000000 magnetization 
 augmentation part       76.0000000 magnetization 

 Free energy of the ion-electron system (eV)
  ---------------------------------------------------
  alpha Z        PSCENC =        69.74352290
  Ewald energy   TEWEN  =     -2773.22408606
  -Hartree energ DENC   =      -601.33944673
  -exchange      EXHF   =         0.00000000
  -V(xc)+E(xc)   XCENC  =       182.00605856
  PAW double counting   =      2494.22442938    -2541.12215007
  entropy T*S    EENTRO =         0.00000000
  eigenvalues    EBANDS =      -676.63372010
  atomic energy  EATOM  =      3769.08782378
  Solvation  Ediel_sol  =         0.00000000
  ---------------------------------------------------
  free energy    TOTEN  =       -77.25756833 eV

  energy without entropy =      -77.25756833  energy(sigma->0) =      -77.25756833


--------------------------------------------------------------------------------------------------------




--------------------------------------- Iteration      1(   5)  ---------------------------------------


     EDDAV:  cpu time    0.2397: real time    0.2400
 BZINTS: Fermi energy:  2.587382; 76.000000 electrons
         Band energy:-677.323493;  BLOECHL correction:  0.000000
       DOS:  cpu time    0.0015: real time    0.0015
    CHARGE:  cpu time    0.0176: real time    0.0177
    MIXING:  cpu time    0.0012: real time    0.0017
    --------------------------------------------
      LOOP:  cpu time    0.2600: real time    0.2609

 eigenvalue-minimisations  :  1160
 total energy-change (2. order) :-0.6897732E+00  (-0.6895867E+00)
 number of electron      76.0000026 magnetization 
 augmentation part       -1.6884685 magnetization 

 Broyden mixing:
  rms(total) = 0.23834E+01    rms(broyden)= 0.23825E+01
  rms(prec ) = 0.25831E+01
  weight for this iteration     100.00

 Free energy of the ion-electron system (eV)
  ---------------------------------------------------
  alpha Z        PSCENC =        69.74352290
  Ewald energy   TEWEN  =     -2773.22408606
  -Hartree energ DENC   =      -601.33944673
  -exchange      EXHF   =         0.00000000
  -V(xc)+E(xc)   XCENC  =       182.00605856
  PAW double counting   =      2494.22442938    -2541.12215007
  entropy T*S    EENTRO =         0.00000000
  eigenvalues    EBANDS =      -677.32349332
  atomic energy  EATOM  =      3769.08782378
  Solvation  Ediel_sol  =         0.00000000
  ---------------------------------------------------
  free energy    TOTEN  =       -77.94734156 eV

  energy without entropy =      -77.94734156  energy(sigma->0) =      -77.94734156


--------------------------------------------------------------------------------------------------------




--------------------------------------- Iteration      1(   6)  ---------------------------------------


    POTLOK:  cpu time    0.0040: real time    0.0042
    SETDIJ:  cpu time    0.0013: real time    0.0013
    EDDIAG:  cpu time    0.0520: real time    0.0527
  RMM-DIIS:  cpu time    0.0880: real time    0.0880
    ORTHCH:  cpu time    0.0068: real time    0.0068
 BZINTS: Fermi energy:  3.005721; 76.000000 electrons
         Band energy:-661.515099;  BLOECHL correction:  0.000000
       DOS:  cpu time    0.0012: real time    0.0012
    CHARGE:  cpu time    0.0164: real time    0.0164
    MIXING:  cpu time    0.0006: real time    0.0006
    --------------------------------------------
      LOOP:  cpu time    0.1701: real time    0.1711

 eigenvalue-minimisations  :   827
 total energy-change (2. order) : 0.1924427E+01  (-0.5851426E+00)
 number of electron      76.0000026 magnetization 
 augmentation part       -1.6339277 magnetization 

 Broyden mixing:
  rms(total) = 0.15506E+01    rms(broyden)= 0.15506E+01
  rms(prec ) = 0.16053E+01
  weight for this iteration     100.00

 eigenvalues of (default mixing * dielectric matrix)
  average eigenvalue GAMMA=   2.4966
  2.4966

 Free energy of the ion-electron system (eV)
  ---------------------------------------------------
  alpha Z        PSCENC =        69.74352290
  Ewald energy   TEWEN  =     -2773.22408606
  -Hartree energ DENC   =      -614.85065686
  -exchange      EXHF   =         0.00000000
  -V(xc)+E(xc)   XCENC  =       183.54192438
  PAW double counting   =      4019.15128684    -4067.95763048
  entropy T*S    EENTRO =         0.00000000
  eigenvalues    EBANDS =      -661.51509878
  atomic energy  EATOM  =      3769.08782378
  Solvation  Ediel_sol  =         0.00000000
  ---------------------------------------------------
  free energy    TOTEN  =       -76.02291427 eV

  energy without entropy =      -76.02291427  energy(sigma->0) =      -76.02291427


--------------------------------------------------------------------------------------------------------




--------------------------------------- Iteration      1(   7)  ---------------------------------------


    POTLOK:  cpu time    0.0039: real time    0.0042
    SETDIJ:  cpu time    0.0013: real time    0.0013
    EDDIAG:  cpu time    0.0516: real time    0.0516
  RMM-DIIS:  cpu time    0.0895: real time    0.0895
    ORTHCH:  cpu time    0.0067: real time    0.0067
 BZINTS: Fermi energy:  3.394818; 76.000000 electrons
         Band energy:-647.236954;  BLOECHL correction:  0.000000
       DOS:  cpu time    0.0014: real time    0.0014
    CHARGE:  cpu time    0.0161: real time    0.0161
    MIXING:  cpu time    0.0006: real time    0.0006
    --------------------------------------------
      LOOP:  cpu time    0.1711: real time    0.1714

 eigenvalue-minimisations  :   850
 total energy-change (2. order) : 0.3695297E+00  (-0.2704621E+00)
 number of electron      76.0000026 magnetization 
 augmentation part       -1.5940051 magnetization 

 Broyden mixing:
  rms(total) = 0.36712E+00    rms(broyden)= 0.36712E+00
  rms(prec ) = 0.39417E+00
  weight for this iteration     100.00

 eigenvalues of (default mixing * dielectric matrix)
  average eigenvalue GAMMA=   1.9332
  1.4299  2.4364

 Free energy of the ion-electron system (eV)
  ---------------------------------------------------
  alpha Z        PSCENC =        69.74352290
  Ewald energy   TEWEN  =     -2773.22408606
  -Hartree energ DENC   =      -628.44202702
  -exchange      EXHF   =         0.00000000
  -V(xc)+E(xc)   XCENC  =       185.09833279
  PAW double counting   =      6961.99710559    -7012.67710266
  entropy T*S    EENTRO =         0.00000000
  eigenvalues    EBANDS =      -647.23695392
  atomic energy  EATOM  =      3769.08782378
  Solvation  Ediel_sol  =         0.00000000
  ---------------------------------------------------
  free energy    TOTEN  =       -75.65338459 eV

  energy without entropy =      -75.65338459  energy(sigma->0) =      -75.65338459


--------------------------------------------------------------------------------------------------------




--------------------------------------- Iteration      1(   8)  ---------------------------------------


    POTLOK:  cpu time    0.0036: real time    0.0039
    SETDIJ:  cpu time    0.0014: real time    0.0014
    EDDIAG:  cpu time    0.0511: real time    0.0511
  RMM-DIIS:  cpu time    0.1063: real time    0.1063
    ORTHCH:  cpu time    0.0067: real time    0.0067
 BZINTS: Fermi energy:  3.392855; 76.000000 electrons
         Band energy:-648.254080;  BLOECHL correction:  0.000000
       DOS:  cpu time    0.0015: real time    0.0015
    CHARGE:  cpu time    0.0163: real time    0.0163
    MIXING:  cpu time    0.0006: real time    0.0006
    --------------------------------------------
      LOOP:  cpu time    0.1875: real time    0.1879

 eigenvalue-minimisations  :   977
 total energy-change (2. order) : 0.8287292E-01  (-0.2161011E-01)
 number of electron      76.0000026 magnetization 
 augmentation part       -1.6292395 magnetization 

 Broyden mixing:
  rms(total) = 0.60218E-01    rms(broyden)= 0.60175E-01
  rms(prec ) = 0.72936E-01
  weight for this iteration     100.00

 eigenvalues of (default mixing * dielectric matrix)
  average eigenvalue GAMMA=   1.6801
  1.0062  2.2889  1.7452

 Free energy of the ion-electron system (eV)
  ---------------------------------------------------
  alpha Z        PSCENC =        69.74352290
  Ewald energy   TEWEN  =     -2773.22408606
  -Hartree energ DENC   =      -627.24625427
  -exchange      EXHF   =         0.00000000
  -V(xc)+E(xc)   XCENC  =       185.06092193
  PAW double counting   =      7621.01053326    -7671.74889312
  entropy T*S    EENTRO =         0.00000000
  eigenvalues    EBANDS =      -648.25408011
  atomic energy  EATOM  =      3769.08782378
  Solvation  Ediel_sol  =         0.00000000
  ---------------------------------------------------
  free energy    TOTEN  =       -75.57051167 eV

  energy without entropy =      -75.57051167  energy(sigma->0) =      -75.57051167


--------------------------------------------------------------------------------------------------------




--------------------------------------- Iteration      1(   9)  ---------------------------------------


    POTLOK:  cpu time    0.0036: real time    0.0039
    SETDIJ:  cpu time    0.0015: real time    0.0015
    EDDIAG:  cpu time    0.0515: real time    0.0515
  RMM-DIIS:  cpu time    0.1056: real time    0.1056
    ORTHCH:  cpu time    0.0067: real time    0.0067
 BZINTS: Fermi energy:  3.250717; 76.000000 electrons
         Band energy:-649.398305;  BLOECHL correction:  0.000000
       DOS:  cpu time    0.0012: real time    0.0012
    CHARGE:  cpu time    0.0160: real time    0.0160
    MIXING:  cpu time    0.0007: real time    0.0007
    --------------------------------------------
      LOOP:  cpu time    0.1868: real time    0.1871

 eigenvalue-minimisations  :   995
 total energy-change (2. order) : 0.4581346E-02  (-0.4105621E-02)
 number of electron      76.0000026 magnetization 
 augmentation part       -1.6459080 magnetization 

 Broyden mixing:
  rms(total) = 0.25020E-01    rms(broyden)= 0.24990E-01
  rms(prec ) = 0.26946E-01
  weight for this iteration     100.00

 eigenvalues of (default mixing * dielectric matrix)
  average eigenvalue GAMMA=   1.7682
  2.2367  1.1761  1.8299  1.8299

 Free energy of the ion-electron system (eV)
  ---------------------------------------------------
  alpha Z        PSCENC =        69.74352290
  Ewald energy   TEWEN  =     -2773.22408606
  -Hartree energ DENC   =      -626.03840213
  -exchange      EXHF   =         0.00000000
  -V(xc)+E(xc)   XCENC  =       184.98705068
  PAW double counting   =      7537.11806746    -7587.84160184
  entropy T*S    EENTRO =         0.00000000
  eigenvalues    EBANDS =      -649.39830513
  atomic energy  EATOM  =      3769.08782378
  Solvation  Ediel_sol  =         0.00000000
  ---------------------------------------------------
  free energy    TOTEN  =       -75.56593033 eV

  energy without entropy =      -75.56593033  energy(sigma->0) =      -75.56593033


--------------------------------------------------------------------------------------------------------




--------------------------------------- Iteration      1(  10)  ---------------------------------------


    POTLOK:  cpu time    0.0036: real time    0.0039
    SETDIJ:  cpu time    0.0013: real time    0.0013
    EDDIAG:  cpu time    0.0518: real time    0.0518
  RMM-DIIS:  cpu time    0.1325: real time    0.1325
    ORTHCH:  cpu time    0.0075: real time    0.0075
 BZINTS: Fermi energy:  3.250086; 76.000000 electrons
         Band energy:-649.074490;  BLOECHL correction:  0.000000
       DOS:  cpu time    0.0012: real time    0.0012
    CHARGE:  cpu time    0.0181: real time    0.0181
    MIXING:  cpu time    0.0007: real time    0.0007
    --------------------------------------------
      LOOP:  cpu time    0.2167: real time    0.2170

 eigenvalue-minimisations  :  1220
 total energy-change (2. order) :-0.6740644E-03  (-0.1194660E-02)
 number of electron      76.0000026 magnetization 
 augmentation part       -1.6515595 magnetization 

 Broyden mixing:
  rms(total) = 0.14622E-01    rms(broyden)= 0.14590E-01
  rms(prec ) = 0.15789E-01
  weight for this iteration     100.00

 eigenvalues of (default mixing * dielectric matrix)
  average eigenvalue GAMMA=   1.7592
  2.3726  2.3726  1.8776  1.3215  0.8517

 Free energy of the ion-electron system (eV)
  ---------------------------------------------------
  alpha Z        PSCENC =        69.74352290
  Ewald energy   TEWEN  =     -2773.22408606
  -Hartree energ DENC   =      -626.36332817
  -exchange      EXHF   =         0.00000000
  -V(xc)+E(xc)   XCENC  =       185.01846732
  PAW double counting   =      7503.95601677    -7554.71053086
  entropy T*S    EENTRO =         0.00000000
  eigenvalues    EBANDS =      -649.07449007
  atomic energy  EATOM  =      3769.08782378
  Solvation  Ediel_sol  =         0.00000000
  ---------------------------------------------------
  free energy    TOTEN  =       -75.56660439 eV

  energy without entropy =      -75.56660439  energy(sigma->0) =      -75.56660439


--------------------------------------------------------------------------------------------------------




--------------------------------------- Iteration      1(  11)  ---------------------------------------


    POTLOK:  cpu time    0.0041: real time    0.0045
    SETDIJ:  cpu time    0.0017: real time    0.0017
    EDDIAG:  cpu time    0.0521: real time    0.0521
  RMM-DIIS:  cpu time    0.1236: real time    0.1236
    ORTHCH:  cpu time    0.0067: real time    0.0067
 BZINTS: Fermi energy:  3.248998; 76.000000 electrons
         Band energy:-648.972272;  BLOECHL correction:  0.000000
       DOS:  cpu time    0.0012: real time    0.0012
    CHARGE:  cpu time    0.0160: real time    0.0160
    MIXING:  cpu time    0.0006: real time    0.0006
    --------------------------------------------
      LOOP:  cpu time    0.2060: real time    0.2064

 eigenvalue-minimisations  :  1155
 total energy-change (2. order) :-0.4616562E-03  (-0.5168652E-03)
 number of electron      76.0000026 magnetization 
 augmentation part       -1.6550117 magnetization 

 Broyden mixing:
  rms(total) = 0.46578E-02    rms(broyden)= 0.46200E-02
  rms(prec ) = 0.51556E-02
  weight for this iteration     100.00

 eigenvalues of (default mixing * dielectric matrix)
  average eigenvalue GAMMA=   1.7019
  2.4611  2.4253  1.7221  0.9783  1.3124  1.3124

 Free energy of the ion-electron system (eV)
  ---------------------------------------------------
  alpha Z        PSCENC =        69.74352290
  Ewald energy   TEWEN  =     -2773.22408606
  -Hartree energ DENC   =      -626.46972774
  -exchange      EXHF   =         0.00000000
  -V(xc)+E(xc)   XCENC  =       185.02839494
  PAW double counting   =      7476.29695840    -7527.05768040
  entropy T*S    EENTRO =         0.00000000
  eigenvalues    EBANDS =      -648.97227187
  atomic energy  EATOM  =      3769.08782378
  Solvation  Ediel_sol  =         0.00000000
  ---------------------------------------------------
  free energy    TOTEN  =       -75.56706605 eV

  energy without entropy =      -75.56706605  energy(sigma->0) =      -75.56706605


--------------------------------------------------------------------------------------------------------




--------------------------------------- Iteration      1(  12)  ---------------------------------------


    POTLOK:  cpu time    0.0036: real time    0.0040
    SETDIJ:  cpu time    0.0013: real time    0.0013
    EDDIAG:  cpu time    0.0518: real time    0.0518
  RMM-DIIS:  cpu time    0.1147: real time    0.1147
    ORTHCH:  cpu time    0.0067: real time    0.0067
 BZINTS: Fermi energy:  3.246702; 76.000000 electrons
         Band energy:-648.964387;  BLOECHL correction:  0.000000
       DOS:  cpu time    0.0012: real time    0.0012
    CHARGE:  cpu time    0.0165: real time    0.0165
    MIXING:  cpu time    0.0006: real time    0.0006
    --------------------------------------------
      LOOP:  cpu time    0.1965: real time    0.1968

 eigenvalue-minimisations  :  1080
 total energy-change (2. order) :-0.2514444E-03  (-0.2726744E-03)
 number of electron      76.0000026 magnetization 
 augmentation part       -1.6572338 magnetization 

 Broyden mixing:
  rms(total) = 0.23713E-02    rms(broyden)= 0.23365E-02
  rms(prec ) = 0.27354E-02
  weight for this iteration     100.00

 eigenvalues of (default mixing * dielectric matrix)
  average eigenvalue GAMMA=   1.5858
  2.4765  2.0617  2.0617  1.4429  1.4429  0.9905  0.6246

 Free energy of the ion-electron system (eV)
  ---------------------------------------------------
  alpha Z        PSCENC =        69.74352290
  Ewald energy   TEWEN  =     -2773.22408606
  -Hartree energ DENC   =      -626.48747793
  -exchange      EXHF   =         0.00000000
  -V(xc)+E(xc)   XCENC  =       185.03389823
  PAW double counting   =      7487.09068490    -7537.84729669
  entropy T*S    EENTRO =         0.00000000
  eigenvalues    EBANDS =      -648.96438663
  atomic energy  EATOM  =      3769.08782378
  Solvation  Ediel_sol  =         0.00000000
  ---------------------------------------------------
  free energy    TOTEN  =       -75.56731749 eV

  energy without entropy =      -75.56731749  energy(sigma->0) =      -75.56731749


--------------------------------------------------------------------------------------------------------




--------------------------------------- Iteration      1(  13)  ---------------------------------------


    POTLOK:  cpu time    0.0035: real time    0.0038
    SETDIJ:  cpu time    0.0013: real time    0.0013
    EDDIAG:  cpu time    0.0512: real time    0.0512
  RMM-DIIS:  cpu time    0.0912: real time    0.0913
    ORTHCH:  cpu time    0.0067: real time    0.0067
 BZINTS: Fermi energy:  3.244174; 76.000000 electrons
         Band energy:-648.955857;  BLOECHL correction:  0.000000
       DOS:  cpu time    0.0012: real time    0.0012
    CHARGE:  cpu time    0.0166: real time    0.0166
    MIXING:  cpu time    0.0007: real time    0.0007
    --------------------------------------------
      LOOP:  cpu time    0.1723: real time    0.1728

 eigenvalue-minimisations  :   855
 total energy-change (2. order) :-0.1307556E-03  (-0.1394984E-03)
 number of electron      76.0000026 magnetization 
 augmentation part       -1.6585781 magnetization 

 Broyden mixing:
  rms(total) = 0.20114E-02    rms(broyden)= 0.19930E-02
  rms(prec ) = 0.23055E-02
  weight for this iteration     100.00

 eigenvalues of (default mixing * dielectric matrix)
  average eigenvalue GAMMA=   1.6833
  2.6366  2.3866  2.3866  1.8730  1.4042  0.9757  0.9020  0.9020

 Free energy of the ion-electron system (eV)
  ---------------------------------------------------
  alpha Z        PSCENC =        69.74352290
  Ewald energy   TEWEN  =     -2773.22408606
  -Hartree energ DENC   =      -626.50722195
  -exchange      EXHF   =         0.00000000
  -V(xc)+E(xc)   XCENC  =       185.03563069
  PAW double counting   =      7486.79916302    -7537.54642366
  entropy T*S    EENTRO =         0.00000000
  eigenvalues    EBANDS =      -648.95585698
  atomic energy  EATOM  =      3769.08782378
  Solvation  Ediel_sol  =         0.00000000
  ---------------------------------------------------
  free energy    TOTEN  =       -75.56744825 eV

  energy without entropy =      -75.56744825  energy(sigma->0) =      -75.56744825


--------------------------------------------------------------------------------------------------------




--------------------------------------- Iteration      1(  14)  ---------------------------------------


    POTLOK:  cpu time    0.0035: real time    0.0039
    SETDIJ:  cpu time    0.0013: real time    0.0013
    EDDIAG:  cpu time    0.0501: real time    0.0501
  RMM-DIIS:  cpu time    0.0979: real time    0.0980
    ORTHCH:  cpu time    0.0067: real time    0.0067
 BZINTS: Fermi energy:  3.242006; 76.000000 electrons
         Band energy:-648.956868;  BLOECHL correction:  0.000000
       DOS:  cpu time    0.0012: real time    0.0012
    CHARGE:  cpu time    0.0166: real time    0.0166
    MIXING:  cpu time    0.0007: real time    0.0007
    --------------------------------------------
      LOOP:  cpu time    0.1781: real time    0.1785

 eigenvalue-minimisations  :   900
 total energy-change (2. order) :-0.6148741E-04  (-0.6796153E-04)
 number of electron      76.0000026 magnetization 
 augmentation part       -1.6595027 magnetization 

 Broyden mixing:
  rms(total) = 0.97256E-03    rms(broyden)= 0.95707E-03
  rms(prec ) = 0.12084E-02
  weight for this iteration     100.00

 eigenvalues of (default mixing * dielectric matrix)
  average eigenvalue GAMMA=   1.7374
  3.3408  2.4707  2.0807  2.0807  1.6982  1.3494  0.9731  0.8987  0.7446

 Free energy of the ion-electron system (eV)
  ---------------------------------------------------
  alpha Z        PSCENC =        69.74352290
  Ewald energy   TEWEN  =     -2773.22408606
  -Hartree energ DENC   =      -626.52436281
  -exchange      EXHF   =         0.00000000
  -V(xc)+E(xc)   XCENC  =       185.03829787
  PAW double counting   =      7485.71897707    -7536.45081472
  entropy T*S    EENTRO =         0.00000000
  eigenvalues    EBANDS =      -648.95686778
  atomic energy  EATOM  =      3769.08782378
  Solvation  Ediel_sol  =         0.00000000
  ---------------------------------------------------
  free energy    TOTEN  =       -75.56750974 eV

  energy without entropy =      -75.56750974  energy(sigma->0) =      -75.56750974


--------------------------------------------------------------------------------------------------------




--------------------------------------- Iteration      1(  15)  ---------------------------------------


    POTLOK:  cpu time    0.0035: real time    0.0039
    SETDIJ:  cpu time    0.0013: real time    0.0013
    EDDIAG:  cpu time    0.0509: real time    0.0509
  RMM-DIIS:  cpu time    0.0890: real time    0.0890
    ORTHCH:  cpu time    0.0067: real time    0.0067
 BZINTS: Fermi energy:  3.239817; 76.000000 electrons
         Band energy:-648.950492;  BLOECHL correction:  0.000000
       DOS:  cpu time    0.0012: real time    0.0012
    CHARGE:  cpu time    0.0162: real time    0.0162
    MIXING:  cpu time    0.0007: real time    0.0007
    --------------------------------------------
      LOOP:  cpu time    0.1696: real time    0.1700

 eigenvalue-minimisations  :   854
 total energy-change (2. order) :-0.3394386E-04  (-0.3901608E-04)
 number of electron      76.0000026 magnetization 
 augmentation part       -1.6600819 magnetization 

 Broyden mixing:
  rms(total) = 0.31294E-03    rms(broyden)= 0.29342E-03
  rms(prec ) = 0.33686E-03
  weight for this iteration     100.00

 eigenvalues of (default mixing * dielectric matrix)
  average eigenvalue GAMMA=   1.7114
  3.5366  2.2987  2.2987  2.0615  2.0615  1.2590  1.0477  0.9278  0.8110  0.8110

 Free energy of the ion-electron system (eV)
  ---------------------------------------------------
  alpha Z        PSCENC =        69.74352290
  Ewald energy   TEWEN  =     -2773.22408606
  -Hartree energ DENC   =      -626.54208280
  -exchange      EXHF   =         0.00000000
  -V(xc)+E(xc)   XCENC  =       185.04003201
  PAW double counting   =      7484.09450092    -7534.81676250
  entropy T*S    EENTRO =         0.00000000
  eigenvalues    EBANDS =      -648.95049193
  atomic energy  EATOM  =      3769.08782378
  Solvation  Ediel_sol  =         0.00000000
  ---------------------------------------------------
  free energy    TOTEN  =       -75.56754368 eV

  energy without entropy =      -75.56754368  energy(sigma->0) =      -75.56754368


--------------------------------------------------------------------------------------------------------




--------------------------------------- Iteration      1(  16)  ---------------------------------------


    POTLOK:  cpu time    0.0035: real time    0.0039
    SETDIJ:  cpu time    0.0013: real time    0.0013
    EDDIAG:  cpu time    0.0511: real time    0.0511
  RMM-DIIS:  cpu time    0.0700: real time    0.0700
    ORTHCH:  cpu time    0.0069: real time    0.0069
 BZINTS: Fermi energy:  3.237522; 76.000000 electrons
         Band energy:-648.945844;  BLOECHL correction:  0.000000
       DOS:  cpu time    0.0014: real time    0.0014
    --------------------------------------------
      LOOP:  cpu time    0.1341: real time    0.1345

 eigenvalue-minimisations  :   707
 total energy-change (2. order) :-0.1493381E-04  (-0.1745995E-04)
 number of electron      76.0000026 magnetization 
 augmentation part       -1.6600819 magnetization 

 Free energy of the ion-electron system (eV)
  ---------------------------------------------------
  alpha Z        PSCENC =        69.74352290
  Ewald energy   TEWEN  =     -2773.22408606
  -Hartree energ DENC   =      -626.55133784
  -exchange      EXHF   =         0.00000000
  -V(xc)+E(xc)   XCENC  =       185.04092867
  PAW double counting   =      7484.41603955    -7535.13460601
  entropy T*S    EENTRO =         0.00000000
  eigenvalues    EBANDS =      -648.94584360
  atomic energy  EATOM  =      3769.08782378
  Solvation  Ediel_sol  =         0.00000000
  ---------------------------------------------------
  free energy    TOTEN  =       -75.56755861 eV

  energy without entropy =      -75.56755861  energy(sigma->0) =      -75.56755861


--------------------------------------------------------------------------------------------------------




 average (electrostatic) potential at core
  the test charge radii are     0.9587  0.9698  0.7079
  (the norm of the test charge is              1.0000)
       1 -87.8322       2 -87.8322       3 -87.9227       4 -87.9227       5 -87.9227
       6 -87.9227       7 -87.9280       8 -87.9280       9 -87.9105      10 -87.9105
      11 -64.4533      12 -64.4533      13 -63.8421      14 -63.8421      15 -63.8421
      16 -63.8421
 
 
 
 E-fermi :   3.2375     XC(G=0):  -9.2101     alpha+bet :-10.6744


 k-point     1 :       0.1250    0.1250    0.1250
  band No.  band energies     occupation 
      1     -41.5970      2.00000
      2     -41.5969      2.00000
      3     -40.9986      2.00000
      4     -40.9983      2.00000
      5     -40.9980      2.00000
      6     -40.9978      2.00000
      7     -12.2664      2.00000
      8     -12.0805      2.00000
      9      -9.4033      2.00000
     10      -9.3389      2.00000
     11      -9.2009      2.00000
     12      -8.8306      2.00000
     13      -8.7778      2.00000
     14      -8.7055      2.00000
     15      -5.3867      2.00000
     16      -4.8264      2.00000
     17      -2.4978      2.00000
     18      -2.2595      2.00000
     19      -2.0669      2.00000
     20      -1.8445      2.00000
     21      -1.7440      2.00000
     22      -1.4502      2.00000
     23      -0.2608      2.00000
     24      -0.1775      2.00000
     25       0.2555      2.00000
     26       0.4300      2.00000
     27       0.6558      2.00000
     28       0.9999      2.00000
     29       1.3542      2.00000
     30       1.4755      2.00000
     31       1.7194      2.00000
     32       1.9408      2.00000
     33       2.0718      2.00000
     34       2.3141      2.00000
     35       2.4390      2.00000
     36       2.5374      2.00000
     37       3.0215      2.00000
     38       3.2353      2.00000
     39       5.3904      0.00000
     40       6.1223      0.00000
     41       6.3204      0.00000
     42       6.5520      0.00000
     43       7.0947      0.00000
     44       7.3707      0.00000
     45       7.5052      0.00000
     46       7.6371      0.00000
     47       7.9862      0.00000
     48       8.5723      0.00000

 k-point     2 :       0.3750    0.1250    0.1250
  band No.  band energies     occupation 
      1     -41.5969      2.00000
      2     -41.5969      2.00000
      3     -40.9984      2.00000
      4     -40.9983      2.00000
      5     -40.9980      2.00000
      6     -40.9979      2.00000
      7     -12.2151      2.00000
      8     -12.1384      2.00000
      9      -9.3593      2.00000
     10      -9.3291      2.00000
     11      -9.1394      2.00000
     12      -8.9833      2.00000
     13      -8.7524      2.00000
     14      -8.7080      2.00000
     15      -5.2068      2.00000
     16      -4.9747      2.00000
     17      -2.4139      2.00000
     18      -2.3215      2.00000
     19      -2.0729      2.00000
     20      -1.9704      2.00000
     21      -1.6266      2.00000
     22      -1.5009      2.00000
     23      -0.2227      2.00000
     24      -0.1631      2.00000
     25       0.4083      2.00000
     26       0.4798      2.00000
     27       0.6787      2.00000
     28       1.0000      2.00000
     29       1.2376      2.00000
     30       1.5781      2.00000
     31       1.6627      2.00000
     32       1.8192      2.00000
     33       1.9650      2.00000
     34       2.0728      2.00000
     35       2.4922      2.00000
     36       2.5650      2.00000
     37       3.0059      2.00000
     38       3.0896      2.00000
     39       5.6727      0.00000
     40       6.0314      0.00000
     41       6.6806      0.00000
     42       6.8985      0.00000
     43       7.1228      0.00000
     44       7.2292      0.00000
     45       7.4303      0.00000
     46       7.6825      0.00000
     47       8.2327      0.00000
     48       8.4656      0.00000

 k-point     3 :       0.1250    0.3750    0.1250
  band No.  band energies     occupation 
      1     -41.5970      2.00000
      2     -41.5969      2.00000
      3     -40.9985      2.00000
      4     -40.9983      2.00000
      5     -40.9980      2.00000
      6     -40.9979      2.00000
      7     -12.2049      2.00000
      8     -12.1126      2.00000
      9      -9.4343      2.00000
     10      -9.4091      2.00000
     11      -9.1958      2.00000
     12      -8.8651      2.00000
     13      -8.7737      2.00000
     14      -8.6974      2.00000
     15      -5.2017      2.00000
     16      -4.8629      2.00000
     17      -2.4756      2.00000
     18      -2.3537      2.00000
     19      -2.0856      2.00000
     20      -1.9398      2.00000
     21      -1.7951      2.00000
     22      -1.3875      2.00000
     23      -0.0827      2.00000
     24       0.0977      2.00000
     25       0.3627      2.00000
     26       0.5012      2.00000
     27       0.7964      2.00000
     28       0.8831      2.00000
     29       1.1580      2.00000
     30       1.2655      2.00000
     31       1.7004      2.00000
     32       1.8784      2.00000
     33       2.2040      2.00000
     34       2.4144      2.00000
     35       2.4731      2.00000
     36       2.5596      2.00000
     37       2.8413      2.00000
     38       3.1902      2.00000
     39       5.4226      0.00000
     40       6.0815      0.00000
     41       6.4404      0.00000
     42       6.8071      0.00000
     43       6.9147      0.00000
     44       7.0229      0.00000
     45       7.1987      0.00000
     46       7.4114      0.00000
     47       8.3459      0.00000
     48       8.7178      0.00000

 k-point     4 :       0.3750    0.3750    0.1250
  band No.  band energies     occupation 
      1     -41.5970      2.00000
      2     -41.5970      2.00000
      3     -40.9984      2.00000
      4     -40.9983      2.00000
      5     -40.9980      2.00000
      6     -40.9980      2.00000
      7     -12.1779      2.00000
      8     -12.1396      2.00000
      9      -9.4585      2.00000
     10      -9.4396      2.00000
     11      -9.0686      2.00000
     12      -8.9337      2.00000
     13      -8.7628      2.00000
     14      -8.7230      2.00000
     15      -5.0919      2.00000
     16      -4.9510      2.00000
     17      -2.3981      2.00000
     18      -2.3468      2.00000
     19      -2.0717      2.00000
     20      -2.0272      2.00000
     21      -1.6655      2.00000
     22      -1.5107      2.00000
     23      -0.0044      2.00000
     24       0.0905      2.00000
     25       0.2178      2.00000
     26       0.4374      2.00000
     27       0.8171      2.00000
     28       0.9631      2.00000
     29       1.1276      2.00000
     30       1.4463      2.00000
     31       1.6156      2.00000
     32       1.7538      2.00000
     33       2.0749      2.00000
     34       2.2693      2.00000
     35       2.4735      2.00000
     36       2.5867      2.00000
     37       2.9726      2.00000
     38       3.0985      2.00000
     39       5.6897      0.00000
     40       6.0255      0.00000
     41       6.5729      0.00000
     42       6.7956      0.00000
     43       7.0414      0.00000
     44       7.1604      0.00000
     45       7.4817      0.00000
     46       7.7800      0.00000
     47       8.3911      0.00000
     48       8.5078      0.00000

 k-point     5 :       0.1250    0.1250    0.3750
  band No.  band energies     occupation 
      1     -41.5970      2.00000
      2     -41.5969      2.00000
      3     -40.9985      2.00000
      4     -40.9984      2.00000
      5     -40.9980      2.00000
      6     -40.9979      2.00000
      7     -12.1538      2.00000
      8     -12.0703      2.00000
      9      -9.3853      2.00000
     10      -9.2943      2.00000
     11      -9.2195      2.00000
     12      -9.0747      2.00000
     13      -8.9528      2.00000
     14      -8.9016      2.00000
     15      -4.8597      2.00000
     16      -4.6390      2.00000
     17      -2.2565      2.00000
     18      -2.1428      2.00000
     19      -1.9939      2.00000
     20      -1.9328      2.00000
     21      -1.7264      2.00000
     22      -1.4445      2.00000
     23       0.0215      2.00000
     24       0.1335      2.00000
     25       0.2080      2.00000
     26       0.4281      2.00000
     27       0.7231      2.00000
     28       0.8388      2.00000
     29       1.3432      2.00000
     30       1.4708      2.00000
     31       1.6487      2.00000
     32       1.7235      2.00000
     33       1.9628      2.00000
     34       2.0738      2.00000
     35       2.1522      2.00000
     36       2.3495      2.00000
     37       2.5917      2.00000
     38       2.6577      2.00000
     39       5.5184      0.00000
     40       5.8679      0.00000
     41       6.5511      0.00000
     42       6.7765      0.00000
     43       7.1366      0.00000
     44       7.3734      0.00000
     45       7.5925      0.00000
     46       7.7428      0.00000
     47       8.4452      0.00000
     48       8.6797      0.00000

 k-point     6 :       0.3750    0.1250    0.3750
  band No.  band energies     occupation 
      1     -41.5970      2.00000
      2     -41.5969      2.00000
      3     -40.9984      2.00000
      4     -40.9983      2.00000
      5     -40.9980      2.00000
      6     -40.9980      2.00000
      7     -12.1288      2.00000
      8     -12.0942      2.00000
      9      -9.3961      2.00000
     10      -9.3518      2.00000
     11      -9.1608      2.00000
     12      -9.1189      2.00000
     13      -8.9071      2.00000
     14      -8.8927      2.00000
     15      -4.7905      2.00000
     16      -4.6984      2.00000
     17      -2.3144      2.00000
     18      -2.2905      2.00000
     19      -1.9521      2.00000
     20      -1.8804      2.00000
     21      -1.5702      2.00000
     22      -1.4694      2.00000
     23       0.0681      2.00000
     24       0.1819      2.00000
     25       0.4392      2.00000
     26       0.5169      2.00000
     27       0.6899      2.00000
     28       0.8303      2.00000
     29       1.2119      2.00000
     30       1.3963      2.00000
     31       1.4848      2.00000
     32       1.6008      2.00000
     33       1.9205      2.00000
     34       2.0086      2.00000
     35       2.0683      2.00000
     36       2.2407      2.00000
     37       2.5567      2.00000
     38       2.6851      2.00000
     39       5.7159      0.00000
     40       5.9432      0.00000
     41       6.7925      0.00000
     42       6.9890      0.00000
     43       7.1940      0.00000
     44       7.4141      0.00000
     45       7.5244      0.00000
     46       7.7374      0.00000
     47       8.4823      0.00000
     48       8.6343      0.00000

 k-point     7 :       0.1250    0.3750    0.3750
  band No.  band energies     occupation 
      1     -41.5970      2.00000
      2     -41.5969      2.00000
      3     -40.9985      2.00000
      4     -40.9984      2.00000
      5     -40.9979      2.00000
      6     -40.9979      2.00000
      7     -12.1162      2.00000
      8     -12.0745      2.00000
      9      -9.3734      2.00000
     10      -9.3171      2.00000
     11      -9.2237      2.00000
     12      -9.1458      2.00000
     13      -8.9715      2.00000
     14      -8.9329      2.00000
     15      -4.7039      2.00000
     16      -4.5940      2.00000
     17      -2.3354      2.00000
     18      -2.1305      2.00000
     19      -2.0614      2.00000
     20      -1.9352      2.00000
     21      -1.7569      2.00000
     22      -1.2956      2.00000
     23      -0.0018      2.00000
     24       0.3253      2.00000
     25       0.4399      2.00000
     26       0.6280      2.00000
     27       0.6592      2.00000
     28       0.9289      2.00000
     29       1.0530      2.00000
     30       1.1282      2.00000
     31       1.4763      2.00000
     32       1.5448      2.00000
     33       1.9129      2.00000
     34       2.2173      2.00000
     35       2.3383      2.00000
     36       2.4873      2.00000
     37       2.5920      2.00000
     38       2.6962      2.00000
     39       5.5715      0.00000
     40       5.9338      0.00000
     41       6.5041      0.00000
     42       6.7916      0.00000
     43       6.9544      0.00000
     44       7.1149      0.00000
     45       7.2951      0.00000
     46       7.4912      0.00000
     47       8.4620      0.00000
     48       8.6209      0.00000

 k-point     8 :       0.3750    0.3750    0.3750
  band No.  band energies     occupation 
      1     -41.5970      2.00000
      2     -41.5969      2.00000
      3     -40.9984      2.00000
      4     -40.9984      2.00000
      5     -40.9980      2.00000
      6     -40.9980      2.00000
      7     -12.1033      2.00000
      8     -12.0859      2.00000
      9      -9.3696      2.00000
     10      -9.3419      2.00000
     11      -9.1934      2.00000
     12      -9.1610      2.00000
     13      -8.9653      2.00000
     14      -8.9453      2.00000
     15      -4.6424      2.00000
     16      -4.5964      2.00000
     17      -2.3128      2.00000
     18      -2.2449      2.00000
     19      -2.0020      2.00000
     20      -1.9183      2.00000
     21      -1.6246      2.00000
     22      -1.4285      2.00000
     23      -0.0406      2.00000
     24       0.1124      2.00000
     25       0.5141      2.00000
     26       0.6167      2.00000
     27       0.7205      2.00000
     28       0.8657      2.00000
     29       1.1753      2.00000
     30       1.2435      2.00000
     31       1.4893      2.00000
     32       1.6167      2.00000
     33       1.7851      2.00000
     34       2.0688      2.00000
     35       2.2468      2.00000
     36       2.3737      2.00000
     37       2.6089      2.00000
     38       2.7170      2.00000
     39       5.8553      0.00000
     40       6.1174      0.00000
     41       6.6507      0.00000
     42       6.8504      0.00000
     43       6.9156      0.00000
     44       7.0828      0.00000
     45       7.3792      0.00000
     46       7.5271      0.00000
     47       8.4729      0.00000
     48       8.7506      0.00000


--------------------------------------------------------------------------------------------------------


 soft charge-density along one line, spin component           1
         0         1         2         3         4         5         6         7         8         9
 total charge-density along one line
 
 pseudopotential strength for first ion, spin component:           1
 29.946  37.363  -0.004  -0.011   0.000  -0.006  -0.017   0.000
 37.363  46.621  -0.005  -0.013   0.000  -0.008  -0.021   0.000
 -0.004  -0.005   6.568   0.000  -0.000  10.170   0.001  -0.000
 -0.011  -0.013   0.000   6.567  -0.000   0.001  10.168  -0.000
  0.000   0.000  -0.000  -0.000   6.567  -0.000  -0.000  10.169
 -0.006  -0.008  10.170   0.001  -0.000  15.766   0.001  -0.000
 -0.017  -0.021   0.001  10.168  -0.000   0.001  15.764  -0.000
  0.000   0.000  -0.000  -0.000  10.169  -0.000  -0.000  15.765
 total augmentation occupancy for first ion, spin component:           1
 11.379  -6.654  -0.014  -0.381   0.000  -0.023   0.107   0.000
 -6.654   4.396   0.032   0.330   0.000   0.014  -0.079   0.000
 -0.014   0.032   4.414   0.097   0.000  -1.490  -0.044   0.000
 -0.381   0.330   0.097   4.507   0.000  -0.044  -1.512   0.000
  0.000   0.000   0.000   0.000   4.236   0.000   0.000  -1.409
 -0.023   0.014  -1.490  -0.044   0.000   0.543   0.022   0.000
  0.107  -0.079  -0.044  -1.512   0.000   0.022   0.557   0.000
  0.000   0.000   0.000   0.000  -1.409   0.000   0.000   0.505


------------------------ aborting loop because EDIFF is reached ----------------------------------------


    CHARGE:  cpu time    0.0167: real time    0.0167
    FORLOC:  cpu time    0.0008: real time    0.0008
    FORNL :  cpu time    0.0356: real time    0.0357
    STRESS:  cpu time    0.1016: real time    0.1023
    FORCOR:  cpu time    0.0029: real time    0.0029
    FORHAR:  cpu time    0.0024: real time    0.0024
    MIXING:  cpu time    0.0005: real time    0.0005
    OFIELD:  cpu time    0.0001: real time    0.0000

  FORCE on cell =-STRESS in cart. coord.  units (eV):
  Direction    XX          YY          ZZ          XY          YZ          ZX
  --------------------------------------------------------------------------------------
  Alpha Z    69.74352    69.74352    69.74352
  Ewald    -996.71969  -941.27795  -835.23180    -0.00000    -0.00000    -0.00000
  Hartree   176.43492   190.22516   259.89274    -0.00000     0.00000     0.00000
  E(xc)    -276.78476  -276.81505  -276.75831     0.00000     0.00000     0.00000
  Local    -533.48420  -594.70323  -772.08152     0.00000     0.00000    -0.00000
  n-local   617.38042   617.33765   613.68782    -0.30829    -0.09928     0.00365
  augment   -42.21862   -41.96132   -41.80208     0.00000    -0.00000     0.00000
  Kinetic   981.04922   979.23197   985.81341     0.09694    -0.23311     0.09135
  Fock        0.00000     0.00000     0.00000     0.00000     0.00000     0.00000
  -------------------------------------------------------------------------------------
  Total      -4.59918     1.78076     3.26378     0.00000     0.00000     0.00000
  in kB     -26.04372    10.08389    18.48175     0.00000     0.00000     0.00000
  external pressure =        0.84 kB  Pullay stress =        0.00 kB


 VOLUME and BASIS-vectors are now :
 -----------------------------------------------------------------------------
  energy-cutoff  :      420.00
  volume of cell :      282.94
      direct lattice vectors                 reciprocal lattice vectors
     7.771431396  0.000000000  0.000000000     0.128676424  0.000000000  0.000000000
     0.000000000  6.132656432  0.000000000     0.000000000  0.163061474  0.000000000
[...]
     17      -2.5522      2.00000
     18      -2.3239      2.00000
     19      -2.2222      2.00000
     20      -2.0492      2.00000
     21      -1.8670      2.00000
     22      -1.7394      2.00000
     23      -0.0688      2.00000
     24       0.0576      2.00000
     25       0.3709      2.00000
     26       0.4710      2.00000
     27       0.5637      2.00000
     28       0.8001      2.00000
     29       1.0384      2.00000
     30       1.1977      2.00000
     31       1.4808      2.00000
     32       1.6877      2.00000
     33       1.8072      2.00000
     34       1.9865      2.00000
     35       2.1622      2.00000
     36       2.2723      2.00000
     37       2.4239      2.00000
     38       2.6185      2.00000
     39       5.6084      0.00000
     40       6.1967      0.00000
     41       6.5803      0.00000
     42       6.6148      0.00000
     43       6.9257      0.00000
     44       7.0670      0.00000
     45       7.1927      0.00000
     46       7.5398      0.00000
     47       8.4539      0.00000
     48       8.5894      0.00000

 k-point     4 :       0.3750    0.3750    0.1250
  band No.  band energies     occupation 
      1     -41.3911      2.00000
      2     -41.3911      2.00000
      3     -40.6814      2.00000
      4     -40.6813      2.00000
      5     -40.6808      2.00000
      6     -40.6808      2.00000
      7     -12.3106      2.00000
      8     -12.2647      2.00000
      9      -9.4734      2.00000
     10      -9.4482      2.00000
     11      -9.2574      2.00000
     12      -9.1665      2.00000
     13      -9.0079      2.00000
     14      -8.9644      2.00000
     15      -5.0552      2.00000
     16      -4.8667      2.00000
     17      -2.4666      2.00000
     18      -2.3696      2.00000
     19      -2.1782      2.00000
     20      -2.1284      2.00000
     21      -1.8012      2.00000
     22      -1.7446      2.00000
     23      -0.0367      2.00000
     24       0.0744      2.00000
     25       0.1713      2.00000
     26       0.3760      2.00000
     27       0.6646      2.00000
     28       0.7605      2.00000
     29       0.9301      2.00000
     30       1.1542      2.00000
     31       1.5501      2.00000
     32       1.6520      2.00000
     33       1.8487      2.00000
     34       1.9893      2.00000
     35       2.1436      2.00000
     36       2.2573      2.00000
     37       2.4690      2.00000
     38       2.6059      2.00000
     39       5.7983      0.00000
     40       6.0582      0.00000
     41       6.6782      0.00000
     42       6.7923      0.00000
     43       7.0477      0.00000
     44       7.1877      0.00000
     45       7.4122      0.00000
     46       7.5308      0.00000
     47       8.5860      0.00000
     48       8.6359      0.00000

 k-point     5 :       0.1250    0.1250    0.3750
  band No.  band energies     occupation 
      1     -41.3911      2.00000
      2     -41.3911      2.00000
      3     -40.6815      2.00000
      4     -40.6814      2.00000
      5     -40.6808      2.00000
      6     -40.6807      2.00000
      7     -12.3046      2.00000
      8     -12.2273      2.00000
      9      -9.4654      2.00000
     10      -9.3764      2.00000
     11      -9.3032      2.00000
     12      -9.1730      2.00000
     13      -9.0803      2.00000
     14      -9.0695      2.00000
     15      -5.1346      2.00000
     16      -4.8590      2.00000
     17      -2.2419      2.00000
     18      -2.1384      2.00000
     19      -2.0649      2.00000
     20      -1.9771      2.00000
     21      -1.9085      2.00000
     22      -1.7674      2.00000
     23       0.0182      2.00000
     24       0.0899      2.00000
     25       0.1626      2.00000
     26       0.3450      2.00000
     27       0.4625      2.00000
     28       0.6385      2.00000
     29       1.0800      2.00000
     30       1.2880      2.00000
     31       1.5371      2.00000
     32       1.6534      2.00000
     33       1.7636      2.00000
     34       1.9090      2.00000
     35       2.0598      2.00000
     36       2.2872      2.00000
     37       2.4769      2.00000
     38       2.6472      2.00000
     39       5.4116      0.00000
     40       5.8141      0.00000
     41       6.4542      0.00000
     42       6.5906      0.00000
     43       7.1303      0.00000
     44       7.2469      0.00000
     45       7.4115      0.00000
     46       7.5212      0.00000
     47       8.2903      0.00000
     48       8.6387      0.00000

 k-point     6 :       0.3750    0.1250    0.3750
  band No.  band energies     occupation 
      1     -41.3911      2.00000
      2     -41.3911      2.00000
      3     -40.6814      2.00000
      4     -40.6813      2.00000
      5     -40.6808      2.00000
      6     -40.6808      2.00000
      7     -12.2809      2.00000
      8     -12.2488      2.00000
      9      -9.4959      2.00000
     10      -9.4539      2.00000
     11      -9.2325      2.00000
     12      -9.1945      2.00000
     13      -9.0545      2.00000
     14      -9.0346      2.00000
     15      -5.0574      2.00000
     16      -4.9428      2.00000
     17      -2.2723      2.00000
     18      -2.2379      2.00000
     19      -2.0258      2.00000
     20      -1.9386      2.00000
     21      -1.7988      2.00000
     22      -1.7561      2.00000
     23       0.0173      2.00000
     24       0.0432      2.00000
     25       0.2841      2.00000
     26       0.4231      2.00000
     27       0.5483      2.00000
     28       0.6622      2.00000
     29       1.0803      2.00000
     30       1.1409      2.00000
     31       1.4743      2.00000
     32       1.5476      2.00000
     33       1.7405      2.00000
     34       1.7910      2.00000
     35       1.9363      2.00000
     36       2.0425      2.00000
     37       2.5731      2.00000
     38       2.6889      2.00000
     39       5.6015      0.00000
     40       5.7802      0.00000
     41       6.6814      0.00000
     42       6.8129      0.00000
     43       7.0585      0.00000
     44       7.1532      0.00000
     45       7.5004      0.00000
     46       7.6594      0.00000
     47       8.4192      0.00000
     48       8.7031      0.00000

 k-point     7 :       0.1250    0.3750    0.3750
  band No.  band energies     occupation 
      1     -41.3911      2.00000
      2     -41.3911      2.00000
      3     -40.6815      2.00000
      4     -40.6814      2.00000
      5     -40.6807      2.00000
      6     -40.6807      2.00000
      7     -12.2649      2.00000
      8     -12.2164      2.00000
      9      -9.4593      2.00000
     10      -9.4184      2.00000
     11      -9.3211      2.00000
     12      -9.2489      2.00000
     13      -9.1379      2.00000
     14      -9.0904      2.00000
     15      -4.9470      2.00000
     16      -4.7472      2.00000
     17      -2.2362      2.00000
     18      -2.1916      2.00000
     19      -2.0827      2.00000
     20      -2.0216      2.00000
     21      -1.7730      2.00000
     22      -1.6333      2.00000
     23      -0.0327      2.00000
     24       0.2074      2.00000
     25       0.2841      2.00000
     26       0.4548      2.00000
     27       0.6148      2.00000
     28       0.7188      2.00000
     29       0.9371      2.00000
     30       1.0215      2.00000
     31       1.1568      2.00000
     32       1.2814      2.00000
     33       1.6533      2.00000
     34       2.0841      2.00000
     35       2.2376      2.00000
     36       2.3298      2.00000
     37       2.4687      2.00000
     38       2.5277      2.00000
     39       5.5527      0.00000
     40       5.9030      0.00000
     41       6.5245      0.00000
     42       6.7795      0.00000
     43       6.8111      0.00000
     44       6.9970      0.00000
     45       7.1277      0.00000
     46       7.2423      0.00000
     47       8.5055      0.00000
     48       8.6815      0.00000

 k-point     8 :       0.3750    0.3750    0.3750
  band No.  band energies     occupation 
      1     -41.3912      2.00000
      2     -41.3911      2.00000
      3     -40.6814      2.00000
      4     -40.6814      2.00000
      5     -40.6808      2.00000
      6     -40.6808      2.00000
      7     -12.2497      2.00000
      8     -12.2295      2.00000
      9      -9.4509      2.00000
     10      -9.4346      2.00000
     11      -9.3184      2.00000
     12      -9.2837      2.00000
     13      -9.1128      2.00000
     14      -9.0885      2.00000
     15      -4.8651      2.00000
     16      -4.7815      2.00000
     17      -2.2344      2.00000
     18      -2.1989      2.00000
     19      -2.0155      2.00000
     20      -1.9367      2.00000
     21      -1.7724      2.00000
     22      -1.7010      2.00000
     23      -0.1150      2.00000
     24       0.0072      2.00000
     25       0.2541      2.00000
     26       0.3425      2.00000
     27       0.5781      2.00000
     28       0.6121      2.00000
     29       1.0177      2.00000
     30       1.0980      2.00000
     31       1.3170      2.00000
     32       1.3847      2.00000
     33       1.6692      2.00000
     34       1.8977      2.00000
     35       2.2373      2.00000
     36       2.2696      2.00000
     37       2.5008      2.00000
     38       2.5924      2.00000
     39       5.7175      0.00000
     40       5.8828      0.00000
     41       6.6462      0.00000
     42       6.6657      0.00000
     43       7.0107      0.00000
     44       7.1354      0.00000
     45       7.3032      0.00000
     46       7.3998      0.00000
     47       8.5409      0.00000
     48       8.6923      0.00000


--------------------------------------------------------------------------------------------------------


 soft charge-density along one line, spin component           1
         0         1         2         3         4         5         6         7         8         9
 total charge-density along one line
 
 pseudopotential strength for first ion, spin component:           1
 29.987  37.414   0.001  -0.001   0.000   0.002  -0.002   0.000
 37.414  46.685   0.002  -0.001   0.000   0.003  -0.002   0.000
  0.001   0.002   6.574   0.001  -0.000  10.180   0.001  -0.000
 -0.001  -0.001   0.001   6.574  -0.000   0.001  10.180  -0.000
  0.000   0.000  -0.000  -0.000   6.573  -0.000  -0.000  10.178
  0.002   0.003  10.180   0.001  -0.000  15.783   0.001  -0.000
 -0.002  -0.002   0.001  10.180  -0.000   0.001  15.783  -0.000
  0.000   0.000  -0.000  -0.000  10.178  -0.000  -0.000  15.780
 total augmentation occupancy for first ion, spin component:           1
 11.146  -6.440   0.102  -0.264   0.000  -0.033   0.121   0.000
 -6.440   4.198  -0.081   0.205   0.000   0.022  -0.088   0.000
  0.102  -0.081   4.355   0.074   0.000  -1.458  -0.038   0.000
 -0.264   0.205   0.074   4.527   0.000  -0.038  -1.532   0.000
  0.000   0.000   0.000   0.000   4.243   0.000   0.000  -1.396
 -0.033   0.022  -1.458  -0.038   0.000   0.528   0.018   0.000
  0.121  -0.088  -0.038  -1.532   0.000   0.018   0.560   0.000
  0.000   0.000   0.000   0.000  -1.396   0.000   0.000   0.500


------------------------ aborting loop because EDIFF is reached ----------------------------------------


    CHARGE:  cpu time    0.0159: real time    0.0159
    FORLOC:  cpu time    0.0008: real time    0.0008
    FORNL :  cpu time    0.0355: real time    0.0355
    STRESS:  cpu time    0.1028: real time    0.1028
    FORCOR:  cpu time    0.0029: real time    0.0029
    FORHAR:  cpu time    0.0024: real time    0.0024
    MIXING:  cpu time    0.0004: real time    0.0004
    OFIELD:  cpu time    0.0000: real time    0.0000

  FORCE on cell =-STRESS in cart. coord.  units (eV):
  Direction    XX          YY          ZZ          XY          YZ          ZX
  --------------------------------------------------------------------------------------
  Alpha Z    69.81663    69.81663    69.81663
  Ewald    -916.74489  -997.50502  -824.65364    -0.00000    -0.00000    -0.00000
  Hartree   220.27840   170.57404   266.27144    -0.00000     0.00000     0.00000
  E(xc)    -277.22399  -277.14736  -277.18956     0.00000     0.00000     0.00000
  Local    -656.54698  -523.43631  -786.71642     0.00000     0.00000    -0.00000
  n-local   610.64549   609.37032   609.77545    -0.43975     0.05740    -0.00341
  augment   -43.61462   -43.30560   -42.80851    -0.00000     0.00000    -0.00000
  Kinetic   993.35483   991.61888   985.63900    -0.02317    -0.10774     0.05004
  Fock        0.00000     0.00000     0.00000     0.00000     0.00000     0.00000
  -------------------------------------------------------------------------------------
  Total      -0.03515    -0.01442     0.13439     0.00000     0.00000     0.00000
  in kB      -0.19922    -0.08174     0.76183     0.00000     0.00000     0.00000
  external pressure =        0.16 kB  Pullay stress =        0.00 kB


 VOLUME and BASIS-vectors are now :
 -----------------------------------------------------------------------------
  energy-cutoff  :      420.00
  volume of cell :      282.64
      direct lattice vectors                 reciprocal lattice vectors
     7.777662493  0.000000000  0.000000000     0.128573334  0.000000000  0.000000000
     0.000000000  6.132635880  0.000000000     0.000000000  0.163062021  0.000000000
     0.000000000  0.000000000  5.925664674     0.000000000  0.000000000  0.168757440

  length of vectors
     7.777662493  6.132635880  5.925664674     0.128573334  0.163062021  0.168757440


 FORCES acting on ions
    electron-ion (+dipol)            ewald-force                    non-local-force                 convergence-correction
 -----------------------------------------------------------------------------------------------
   -.109E-09 -.127E+02 -.170E+02   -.154E-08 0.124E+02 0.169E+02   0.000E+00 0.276E+00 0.110E+00   -.345E-13 -.320E-02 -.148E-02
   0.205E-08 0.127E+02 -.170E+02   0.479E-09 -.124E+02 0.169E+02   0.000E+00 -.276E+00 0.110E+00   0.457E-12 0.320E-02 -.148E-02
   -.677E+02 0.712E+01 0.865E+01   0.688E+02 -.845E+01 -.102E+02   -.112E+01 0.134E+01 0.155E+01   -.347E-02 -.394E-02 0.244E-02
   0.677E+02 -.712E+01 0.865E+01   -.688E+02 0.845E+01 -.102E+02   0.112E+01 -.134E+01 0.155E+01   0.347E-02 0.394E-02 0.244E-02
   -.677E+02 -.712E+01 0.865E+01   0.688E+02 0.845E+01 -.102E+02   -.112E+01 -.134E+01 0.155E+01   -.347E-02 0.394E-02 0.244E-02
   0.677E+02 0.712E+01 0.865E+01   -.688E+02 -.845E+01 -.102E+02   0.112E+01 0.134E+01 0.155E+01   0.347E-02 -.394E-02 0.244E-02
   0.581E-10 -.554E+02 0.476E+02   -.123E-08 0.569E+02 -.481E+02   0.000E+00 -.157E+01 0.449E+00   -.144E-12 -.445E-02 0.255E-02
   0.533E-08 0.554E+02 0.476E+02   0.708E-09 -.569E+02 -.481E+02   0.000E+00 0.157E+01 0.449E+00   0.535E-12 0.445E-02 0.255E-02
   0.940E-10 -.470E+02 -.493E+02   -.139E-08 0.489E+02 0.517E+02   0.000E+00 -.185E+01 -.237E+01   -.347E-12 -.416E-02 0.156E-02
   0.520E-08 0.470E+02 -.493E+02   0.670E-09 -.489E+02 0.517E+02   0.000E+00 0.185E+01 -.237E+01   0.225E-13 0.416E-02 0.156E-02
   -.611E-10 0.291E+02 0.150E+02   -.904E-09 -.282E+02 -.148E+02   0.000E+00 -.921E+00 -.178E+00   0.143E-13 0.205E-02 -.278E-03
   0.338E-08 -.291E+02 0.150E+02   0.317E-09 0.282E+02 -.148E+02   0.000E+00 0.921E+00 -.178E+00   -.290E-13 -.205E-02 -.278E-03
   -.921E+01 -.215E+02 -.809E+01   0.936E+01 0.209E+02 0.737E+01   -.153E+00 0.620E+00 0.717E+00   -.116E-02 -.119E-02 -.203E-02
   0.921E+01 0.215E+02 -.809E+01   -.936E+01 -.209E+02 0.737E+01   0.153E+00 -.620E+00 0.717E+00   0.116E-02 0.119E-02 -.203E-02
   -.921E+01 0.215E+02 -.809E+01   0.936E+01 -.209E+02 0.737E+01   -.153E+00 -.620E+00 0.717E+00   -.116E-02 0.119E-02 -.203E-02
   0.921E+01 -.215E+02 -.809E+01   -.936E+01 0.209E+02 0.737E+01   0.153E+00 0.620E+00 0.717E+00   0.116E-02 -.119E-02 -.203E-02
 -----------------------------------------------------------------------------------------------
   0.497E-07 -.361E-07 -.509E+01   -.266E-13 0.178E-13 -.124E-13   0.000E+00 0.000E+00 0.507E+01   0.736E-12 -.335E-11 0.633E-02
 
 
 POSITION                                       TOTAL-FORCE (eV/Angst)
 -----------------------------------------------------------------------------------
      0.00000      1.65679      1.98356         0.000000      0.028440      0.010974
      3.88883      4.47585      4.94639         0.000000     -0.028440      0.010974
      1.62210      0.63521      1.27868        -0.017004      0.003528      0.001046
      2.26673      5.49742      4.24152         0.017004     -0.003528      0.001046
      5.51093      5.49742      4.24152        -0.017004     -0.003528      0.001046
      6.15556      0.63521      1.27868         0.017004      0.003528      0.001046
      0.00000      3.47908      1.08886         0.000000     -0.005979     -0.010401
      3.88883      2.65356      4.05170         0.000000      0.005979     -0.010401
      0.00000      1.88818      4.00262         0.000000      0.001387     -0.005295
      3.88883      4.24445      1.03979         0.000000     -0.001387     -0.005295
      0.00000      5.72969      5.45157         0.000000      0.004083      0.016377
      3.88883      0.40295      2.48874         0.000000     -0.004083      0.016377
      2.07838      1.65408      5.11526        -0.005700      0.004277     -0.006873
      1.81045      4.47856      2.15243         0.005700     -0.004277     -0.006873
      5.96721      4.47856      2.15243        -0.005700     -0.004277     -0.006873
      5.69928      1.65408      5.11526         0.005700      0.004277     -0.006873
 -----------------------------------------------------------------------------------
    total drift:                                0.000000     -0.000000     -0.014419


--------------------------------------------------------------------------------------------------------



  FREE ENERGIE OF THE ION-ELECTRON SYSTEM (eV)
  ---------------------------------------------------
  free  energy   TOTEN  =       -76.86789392 eV

  energy  without entropy=      -76.86789392  energy(sigma->0) =      -76.86789392
 
 d Force = 0.7056509E-04[ 0.460E-04, 0.951E-04]  d Energy =-0.1448543E-04 0.851E-04
 d Force = 0.2041374E+00[ 0.204E+00, 0.204E+00]  d Ewald  = 0.9797018E+00-0.776E+00


--------------------------------------------------------------------------------------------------------


    POTLOK:  cpu time    0.0038: real time    0.0038


--------------------------------------------------------------------------------------------------------




--------------------------------------------------------------------------------------------------------


  
 reached required accuracy - stopping structural energy minimisation
     LOOP+:  cpu time    0.8421: real time    0.8657
    4ORBIT:  cpu time    0.0000: real time    0.0000
 BZINTS: Fermi energy:  2.804504; 76.000000 electrons
         Band energy:-654.748740;  BLOECHL correction:  0.000000

 total amount of memory used by VASP MPI-rank0    33582. kBytes
=======================================================================

   base      :      30000. kBytes
   nonlr-proj:       1236. kBytes
   fftplans  :        656. kBytes
   grid      :       1147. kBytes
   one-center:          3. kBytes
   wavefun   :        540. kBytes
 
  
  
 General timing and accounting informations for this job:
 ========================================================
  
                  Total CPU time used (sec):       83.556
                            User time (sec):       82.913
                          System time (sec):        0.644
                         Elapsed time (sec):       85.763
  
                   Maximum memory used (kb):      217648.
                   Average memory used (kb):           0.
  
                          Minor page faults:        62921
                          Major page faults:          123
                 Voluntary context switches:         3392
