<?xml version="1.0" encoding="ISO-8859-1"?>
<modeling>
 <generator>
  <i name="program" type="string">vasp </i>
  <i name="version" type="string">5.4.4.18Apr17-6-g9f103f2a35  </i>
  <i name="subversion" type="string">(build Feb 28 2020 14:15:47) complex            parallel </i>
  <i name="platform" type="string">LinuxIFC </i>
  <i name="date" type="string">2022 08 06 </i>
  <i name="time" type="string">19:10:28 </i>
 </generator>
 <incar>
  <i type="int" name="ISTART">     0</i>
  <i type="string" name="PREC">accurate</i>
  <i type="string" name="ALGO"> FAST</i>
  <i type="int" name="ISPIN">     1</i>
  <i type="int" name="ICHARG">     2</i>
  <i type="int" name="INIWAV">     1</i>
  <i type="int" name="NELM">   100</i>
  <i type="int" name="IBRION">     2</i>
  <i name="EDIFF">      0.00002000</i>
  <i name="EDIFFG">      0.00020000</i>
  <i type="int" name="NSW">   100</i>
  <i type="int" name="ISIF">     3</i>
  <i name="ENCUT">    420.00000000</i>
  <i type="string" name="LREAL"> AUTO</i>
  <i type="int" name="ISMEAR">    -5</i>
  <i type="logical" name="LWAVE"> F  </i>
  <i type="logical" name="LCHARG"> F  </i>
  <v type="int" name="KPOINT_BSE">    -1     0     0     0</v>
  <i type="int" name="NELM">   100</i>
 </incar>
 <structure name="primitive_cell" >
  <crystal>
   <varray name="basis" >
    <v>       7.77143140       0.00000000       0.00000000 </v>
    <v>       0.00000000       6.13265643       0.00000000 </v>
    <v>       0.00000000       0.00000000       5.93661196 </v>
   </varray>
   <i name="volume">    282.93606905 </i>
   <varray name="rec_basis" >
    <v>       0.12867642       0.00000000       0.00000000 </v>
    <v>       0.00000000       0.16306147       0.00000000 </v>
    <v>       0.00000000       0.00000000       0.16844625 </v>
   </varray>
  </crystal>
  <varray name="positions" >
   <v>       0.00000000       0.27249789       0.33460600 </v>
   <v>       0.00000000      -0.47409757       0.11481892 </v>
   <v>       0.00000000       0.38637700      -0.34375418 </v>
   <v>       0.20890177       0.08297993       0.26126524 </v>
   <v>      -0.20890177       0.08297993       0.26126524 </v>
   <v>       0.00000000      -0.06631357      -0.08009078 </v>
   <v>       0.23378713      -0.26665959       0.36195138 </v>
   <v>      -0.23378713      -0.26665959       0.36195138 </v>
   <v>       0.26621287       0.26665959      -0.13804862 </v>
   <v>      -0.26621287       0.26665959      -0.13804862 </v>
   <v>       0.29109823      -0.08297993      -0.23873476 </v>
   <v>      -0.29109823      -0.08297993      -0.23873476 </v>
   <v>       0.50000000       0.06631357       0.41990922 </v>
   <v>       0.50000000       0.47409757      -0.38518108 </v>
   <v>       0.50000000      -0.38637700       0.15624582 </v>
   <v>       0.50000000      -0.27249789      -0.16539400 </v>
  </varray>
 </structure>
 <varray name="primitive_index" >
  <v type="int" >        1 </v>
  <v type="int" >        7 </v>
  <v type="int" >        9 </v>
  <v type="int" >        3 </v>
  <v type="int" >        6 </v>
  <v type="int" >       11 </v>
  <v type="int" >       14 </v>
  <v type="int" >       15 </v>
  <v type="int" >       13 </v>
  <v type="int" >       16 </v>
  <v type="int" >        4 </v>
  <v type="int" >        5 </v>
  <v type="int" >       12 </v>
  <v type="int" >        8 </v>
  <v type="int" >       10 </v>
  <v type="int" >        2 </v>
 </varray>
 <kpoints>
  <generation param="Monkhorst-Pack">
   <v type="int" name="divisions">       4        4        4 </v>
   <v name="usershift">      0.00000000       0.00000000       0.00000000 </v>
   <v name="genvec1">      0.25000000       0.00000000       0.00000000 </v>
   <v name="genvec2">      0.00000000       0.25000000       0.00000000 </v>
   <v name="genvec3">      0.00000000       0.00000000       0.25000000 </v>
   <v name="shift">      0.50000000       0.50000000       0.50000000 </v>
  </generation>
  <varray name="kpointlist" >
   <v>       0.12500000       0.12500000       0.12500000 </v>
   <v>       0.37500000       0.12500000       0.12500000 </v>
   <v>       0.12500000       0.37500000       0.12500000 </v>
   <v>       0.37500000       0.37500000       0.12500000 </v>
   <v>       0.12500000       0.12500000       0.37500000 </v>
   <v>       0.37500000       0.12500000       0.37500000 </v>
   <v>       0.12500000       0.37500000       0.37500000 </v>
   <v>       0.37500000       0.37500000       0.37500000 </v>
  </varray>
  <varray name="weights" >
   <v>       0.12500000 </v>
   <v>       0.12500000 </v>
   <v>       0.12500000 </v>
   <v>       0.12500000 </v>
   <v>       0.12500000 </v>
   <v>       0.12500000 </v>
   <v>       0.12500000 </v>
   <v>       0.12500000 </v>
  </varray>
  <varray name="tetrahedronlist"  type="int" >
   <v type="int" >        2        1        2        4        5 </v>
   <v type="int" >        2        1        3        4        5 </v>
   <v type="int" >        2        3        4        5        7 </v>
   <v type="int" >        2        2        4        5        6 </v>
   <v type="int" >        2        4        5        6        8 </v>
   <v type="int" >        2        4        5        7        8 </v>
   <v type="int" >        2        2        2        4        6 </v>
   <v type="int" >        2        2        4        4        6 </v>
   <v type="int" >        2        4        4        6        8 </v>
   <v type="int" >        2        2        4        6        6 </v>
   <v type="int" >        2        4        6        6        8 </v>
   <v type="int" >        2        4        6        8        8 </v>
   <v type="int" >        2        1        2        3        6 </v>
   <v type="int" >        2        2        3        4        6 </v>
   <v type="int" >        2        3        4        6        8 </v>
   <v type="int" >        2        1        3        5        6 </v>
   <v type="int" >        2        3        5        6        7 </v>
   <v type="int" >        2        3        6        7        8 </v>
   <v type="int" >        2        1        1        3        5 </v>
   <v type="int" >        2        1        3        3        5 </v>
   <v type="int" >        2        3        3        5        7 </v>
   <v type="int" >        2        1        3        5        5 </v>
   <v type="int" >        2        3        5        5        7 </v>
   <v type="int" >        2        3        5        7        7 </v>
   <v type="int" >        2        3        4        4        7 </v>
   <v type="int" >        2        3        3        4        7 </v>
   <v type="int" >        2        3        4        7        7 </v>
   <v type="int" >        2        4        4        7        8 </v>
   <v type="int" >        2        4        7        8        8 </v>
   <v type="int" >        2        4        7        7        8 </v>
   <v type="int" >        4        4        4        4        8 </v>
   <v type="int" >        4        4        4        8        8 </v>
   <v type="int" >        4        4        8        8        8 </v>
   <v type="int" >        2        3        3        4        8 </v>
   <v type="int" >        2        3        4        4        8 </v>
   <v type="int" >        2        3        4        8        8 </v>
   <v type="int" >        2        3        3        7        8 </v>
   <v type="int" >        2        3        7        7        8 </v>
   <v type="int" >        2        3        7        8        8 </v>
   <v type="int" >        4        3        3        3        7 </v>
   <v type="int" >        4        3        3        7        7 </v>
   <v type="int" >        4        3        7        7        7 </v>
   <v type="int" >        2        2        3        4        7 </v>
   <v type="int" >        2        1        2        3        7 </v>
   <v type="int" >        2        1        2        5        7 </v>
   <v type="int" >        2        2        4        7        8 </v>
   <v type="int" >        2        2        6        7        8 </v>
   <v type="int" >        2        2        5        6        7 </v>
   <v type="int" >        2        2        4        4        8 </v>
   <v type="int" >        2        2        2        4        8 </v>
   <v type="int" >        2        2        2        6        8 </v>
   <v type="int" >        2        2        4        8        8 </v>
   <v type="int" >        2        2        6        8        8 </v>
   <v type="int" >        2        2        6        6        8 </v>
   <v type="int" >        2        1        3        4        8 </v>
   <v type="int" >        2        1        2        4        8 </v>
   <v type="int" >        2        1        2        6        8 </v>
   <v type="int" >        2        1        3        7        8 </v>
   <v type="int" >        2        1        5        7        8 </v>
   <v type="int" >        2        1        5        6        8 </v>
   <v type="int" >        2        1        3        3        7 </v>
   <v type="int" >        2        1        1        3        7 </v>
   <v type="int" >        2        1        1        5        7 </v>
   <v type="int" >        2        1        3        7        7 </v>
   <v type="int" >        2        1        5        7        7 </v>
   <v type="int" >        2        1        5        5        7 </v>
   <v type="int" >        2        1        2        2        5 </v>
   <v type="int" >        2        1        1        2        5 </v>
   <v type="int" >        2        1        2        5        5 </v>
   <v type="int" >        2        2        2        5        6 </v>
   <v type="int" >        2        2        5        6        6 </v>
   <v type="int" >        2        2        5        5        6 </v>
   <v type="int" >        4        2        2        2        6 </v>
   <v type="int" >        4        2        2        6        6 </v>
   <v type="int" >        4        2        6        6        6 </v>
   <v type="int" >        2        1        1        2        6 </v>
   <v type="int" >        2        1        2        2        6 </v>
   <v type="int" >        2        1        2        6        6 </v>
   <v type="int" >        2        1        1        5        6 </v>
   <v type="int" >        2        1        5        5        6 </v>
   <v type="int" >        2        1        5        6        6 </v>
   <v type="int" >        4        1        1        1        5 </v>
   <v type="int" >        4        1        1        5        5 </v>
   <v type="int" >        4        1        5        5        5 </v>
   <v type="int" >        2        5        5        6        8 </v>
   <v type="int" >        2        5        5        7        8 </v>
   <v type="int" >        2        5        7        7        8 </v>
   <v type="int" >        2        5        6        6        8 </v>
   <v type="int" >        2        5        6        8        8 </v>
   <v type="int" >        2        5        7        8        8 </v>
   <v type="int" >        4        6        6        6        8 </v>
   <v type="int" >        4        6        6        8        8 </v>
   <v type="int" >        4        6        8        8        8 </v>
   <v type="int" >        2        5        6        6        7 </v>
   <v type="int" >        2        6        6        7        8 </v>
   <v type="int" >        2        6        7        8        8 </v>
   <v type="int" >        2        5        5        6        7 </v>
   <v type="int" >        2        5        6        7        7 </v>
   <v type="int" >        2        6        7        7        8 </v>
   <v type="int" >        4        5        5        5        7 </v>
   <v type="int" >        4        5        5        7        7 </v>
   <v type="int" >        4        5        7        7        7 </v>
   <v type="int" >        4        7        7        8        8 </v>
   <v type="int" >        4        7        7        7        8 </v>
   <v type="int" >        4        7        8        8        8 </v>
   <v type="int" >        6        8        8        8        8 </v>
   <v type="int" >        6        7        7        7        7 </v>
   <v type="int" >        4        5        5        6        6 </v>
   <v type="int" >        4        5        5        5        6 </v>
   <v type="int" >        4        5        6        6        6 </v>
   <v type="int" >        6        6        6        6        6 </v>
   <v type="int" >        6        5        5        5        5 </v>
   <v type="int" >        2        1        1        2        4 </v>
   <v type="int" >        2        1        1        3        4 </v>
   <v type="int" >        2        1        3        3        4 </v>
   <v type="int" >        2        1        2        2        4 </v>
   <v type="int" >        2        1        2        4        4 </v>
   <v type="int" >        2        1        3        4        4 </v>
   <v type="int" >        4        2        2        2        4 </v>
   <v type="int" >        4        2        2        4        4 </v>
   <v type="int" >        4        2        4        4        4 </v>
   <v type="int" >        2        1        2        2        3 </v>
   <v type="int" >        2        2        2        3        4 </v>
   <v type="int" >        2        2        3        4        4 </v>
   <v type="int" >        2        1        1        2        3 </v>
   <v type="int" >        2        1        2        3        3 </v>
   <v type="int" >        2        2        3        3        4 </v>
   <v type="int" >        4        1        1        1        3 </v>
   <v type="int" >        4        1        1        3        3 </v>
   <v type="int" >        4        1        3        3        3 </v>
   <v type="int" >        4        3        3        4        4 </v>
   <v type="int" >        4        3        3        3        4 </v>
   <v type="int" >        4        3        4        4        4 </v>
   <v type="int" >        6        4        4        4        4 </v>
   <v type="int" >        6        3        3        3        3 </v>
   <v type="int" >        4        1        1        2        2 </v>
   <v type="int" >        4        1        1        1        2 </v>
   <v type="int" >        4        1        2        2        2 </v>
   <v type="int" >        6        2        2        2        2 </v>
   <v type="int" >        6        1        1        1        1 </v>
  </varray>
  <i name="volumeweight">      0.00260417 </i>
 </kpoints>
 <parameters>
  <separator name="general" >
   <i type="string" name="SYSTEM">unknown system</i>
   <i type="logical" name="LCOMPAT"> F  </i>
  </separator>
  <separator name="electronic" >
   <i type="string" name="PREC">accura</i>
   <i name="ENMAX">    420.00000000</i>
   <i name="ENAUG">    628.94500000</i>
   <i name="EDIFF">      0.00002000</i>
   <i type="int" name="IALGO">    68</i>
   <i type="int" name="IWAVPR">    11</i>
   <i type="int" name="NBANDS">    48</i>
   <i name="NELECT">     76.00000000</i>
   <i type="int" name="TURBO">     0</i>
   <i type="int" name="IRESTART">     0</i>
   <i type="int" name="NREBOOT">     0</i>
   <i type="int" name="NMIN">     0</i>
   <i name="EREF">      0.00000000</i>
   <separator name="electronic smearing" >
    <i type="int" name="ISMEAR">    -5</i>
    <i name="SIGMA">      0.20000000</i>
    <i name="KSPACING">      0.50000000</i>
    <i type="logical" name="KGAMMA"> T  </i>
   </separator>
   <separator name="electronic projectors" >
    <i type="logical" name="LREAL"> T  </i>
    <v name="ROPT">     -0.00025000     -0.00025000     -0.00025000</v>
    <i type="int" name="LMAXPAW">  -100</i>
    <i type="int" name="LMAXMIX">     2</i>
    <i type="logical" name="NLSPLINE"> F  </i>
   </separator>
   <separator name="electronic startup" >
    <i type="int" name="ISTART">     0</i>
    <i type="int" name="ICHARG">     2</i>
    <i type="int" name="INIWAV">     1</i>
   </separator>
   <separator name="electronic spin" >
    <i type="int" name="ISPIN">     1</i>
    <i type="logical" name="LNONCOLLINEAR"> F  </i>
    <v name="MAGMOM">      1.00000000      1.00000000      1.00000000      1.00000000      1.00000000      1.00000000      1.00000000      1.00000000      1.00000000      1.00000000      1.00000000      1.00000000      1.00000000      1.00000000      1.00000000      1.00000000</v>
    <i name="NUPDOWN">     -1.00000000</i>
    <i type="logical" name="LSORBIT"> F  </i>
    <v name="SAXIS">      0.00000000      0.00000000      1.00000000</v>
    <i type="logical" name="LSPIRAL"> F  </i>
    <v name="QSPIRAL">      0.00000000      0.00000000      0.00000000</v>
    <i type="logical" name="LZEROZ"> F  </i>
   </separator>
   <separator name="electronic exchange-correlation" >
    <i type="logical" name="LASPH"> F  </i>
    <i type="logical" name="LMETAGGA"> F  </i>
   </separator>
   <separator name="electronic convergence" >
    <i type="int" name="NELM">   100</i>
    <i type="int" name="NELMDL">    -5</i>
    <i type="int" name="NELMIN">     2</i>
    <i name="ENINI">    420.00000000</i>
    <separator name="electronic convergence detail" >
     <i type="logical" name="LDIAG"> T  </i>
     <i type="logical" name="LSUBROT"> F  </i>
     <i name="WEIMIN">      0.00100000</i>
     <i name="EBREAK">      0.00000010</i>
     <i name="DEPER">      0.30000000</i>
     <i type="int" name="NRMM">     4</i>
     <i name="TIME">      0.40000000</i>
    </separator>
   </separator>
   <separator name="electronic mixer" >
    <i name="AMIX">      0.40000000</i>
    <i name="BMIX">      1.00000000</i>
    <i name="AMIN">      0.10000000</i>
    <i name="AMIX_MAG">      1.60000000</i>
    <i name="BMIX_MAG">      1.00000000</i>
    <separator name="electronic mixer details" >
     <i type="int" name="IMIX">     4</i>
     <i type="logical" name="MIXFIRST"> F  </i>
     <i type="int" name="MAXMIX">   -45</i>
     <i name="WC">    100.00000000</i>
     <i type="int" name="INIMIX">     1</i>
     <i type="int" name="MIXPRE">     1</i>
     <i type="int" name="MREMOVE">     5</i>
    </separator>
   </separator>
   <separator name="electronic dipolcorrection" >
    <i type="logical" name="LDIPOL"> F  </i>
    <i type="logical" name="LMONO"> F  </i>
    <i type="int" name="IDIPOL">     0</i>
    <i name="EPSILON">      1.00000000</i>
    <v name="DIPOL">   -100.00000000   -100.00000000   -100.00000000</v>
    <i name="EFIELD">      0.00000000</i>
   </separator>
  </separator>
  <separator name="grids" >
   <i type="int" name="NGX">    54</i>
   <i type="int" name="NGY">    42</i>
   <i type="int" name="NGZ">    40</i>
   <i type="int" name="NGXF">   108</i>
   <i type="int" name="NGYF">    84</i>
   <i type="int" name="NGZF">    80</i>
   <i type="logical" name="ADDGRID"> F  </i>
  </separator>
  <separator name="ionic" >
   <i type="int" name="NSW">   100</i>
   <i type="int" name="IBRION">     2</i>
   <i type="int" name="MDALGO">     0</i>
   <i type="int" name="ISIF">     3</i>
   <i name="PSTRESS">      0.00000000</i>
   <i name="EDIFFG">      0.00020000</i>
   <i type="int" name="NFREE">     1</i>
   <i name="POTIM">      0.50000000</i>
   <i name="SMASS">     -3.00000000</i>
   <i name="SCALEE">      1.00000000</i>
  </separator>
  <separator name="ionic md" >
   <i name="TEBEG">      0.00010000</i>
   <i name="TEEND">      0.00010000</i>
   <i type="int" name="NBLOCK">     1</i>
   <i type="int" name="KBLOCK">   100</i>
   <i type="int" name="NPACO">   256</i>
   <i name="APACO">     16.00000000</i>
  </separator>
  <separator name="symmetry" >
   <i type="int" name="ISYM">     2</i>
   <i name="SYMPREC">      0.00001000</i>
  </separator>
  <separator name="dos" >
   <i type="int" name="LORBIT">     0</i>
   <v name="RWIGS">     -1.00000000     -1.00000000     -1.00000000</v>
   <i type="int" name="NEDOS">   301</i>
   <i name="EMIN">     10.00000000</i>
   <i name="EMAX">    -10.00000000</i>
   <i name="EFERMI">      0.00000000</i>
  </separator>
  <separator name="writing" >
   <i type="int" name="NWRITE">     2</i>
   <i type="logical" name="LWAVE"> F  </i>
   <i type="logical" name="LDOWNSAMPLE"> F  </i>
   <i type="logical" name="LCHARG"> F  </i>
   <i type="logical" name="LPARD"> F  </i>
   <i type="logical" name="LVTOT"> F  </i>
   <i type="logical" name="LVHAR"> F  </i>
   <i type="logical" name="LELF"> F  </i>
   <i type="logical" name="LOPTICS"> F  </i>
   <v name="STM">      0.00000000      0.00000000      0.00000000      0.00000000      0.00000000      0.00000000      0.00000000</v>
  </separator>
  <separator name="performance" >
   <i type="int" name="NPAR">     4</i>
   <i type="int" name="NSIM">     4</i>
   <i type="int" name="NBLK">    -1</i>
   <i type="logical" name="LPLANE"> T  </i>
   <i type="logical" name="LSCALAPACK"> T  </i>
   <i type="logical" name="LSCAAWARE"> F  </i>
   <i type="logical" name="LSCALU"> F  </i>
   <i type="logical" name="LASYNC"> F  </i>
   <i type="logical" name="LORBITALREAL"> F  </i>
  </separator>
  <separator name="miscellaneous" >
   <i type="int" name="IDIOT">     3</i>
   <i type="int" name="ISPECIAL">     0</i>
   <i type="logical" name="LMUSIC"> F  </i>
   <v name="POMASS">     30.97400000     32.06600000      7.01000000</v>
   <v name="DARWINR">      0.00000000      0.00000000      0.00000000</v>
   <v name="DARWINV">      1.00000000      1.00000000      1.00000000</v>
   <i type="logical" name="LCORR"> T  </i>
  </separator>
  <i type="logical" name="GGA_COMPAT"> T  </i>
  <i type="logical" name="LBERRY"> F  </i>
  <i type="int" name="ICORELEVEL">     0</i>
  <i type="logical" name="LDAU"> F  </i>
  <i type="int" name="I_CONSTRAINED_M">     0</i>
  <separator name="electronic exchange-correlation" >
   <i type="string" name="GGA">--</i>
   <i type="int" name="VOSKOWN">     0</i>
   <i type="logical" name="LHFCALC"> F  </i>
   <i type="string" name="PRECFOCK"></i>
   <i type="logical" name="LSYMGRAD"> F  </i>
   <i type="logical" name="LHFONE"> F  </i>
   <i type="logical" name="LRHFCALC"> F  </i>
   <i type="logical" name="LTHOMAS"> F  </i>
   <i type="logical" name="LMODELHF"> F  </i>
   <i name="ENCUT4O">     -1.00000000</i>
   <i type="int" name="EXXOEP">     0</i>
   <i type="int" name="FOURORBIT">     0</i>
   <i name="AEXX">      0.00000000</i>
   <i name="HFALPHA">      0.00000000</i>
   <i name="MCALPHA">      0.00000000</i>
   <i name="ALDAX">      1.00000000</i>
   <i name="AGGAX">      1.00000000</i>
   <i name="ALDAC">      1.00000000</i>
   <i name="AGGAC">      1.00000000</i>
   <i type="int" name="NKREDX">     1</i>
   <i type="int" name="NKREDY">     1</i>
   <i type="int" name="NKREDZ">     1</i>
   <i type="logical" name="SHIFTRED"> F  </i>
   <i type="logical" name="ODDONLY"> F  </i>
   <i type="logical" name="EVENONLY"> F  </i>
   <i type="int" name="LMAXFOCK">     0</i>
   <i type="int" name="NMAXFOCKAE">     0</i>
   <i type="logical" name="LFOCKAEDFT"> F  </i>
   <i name="HFSCREEN">      0.00000000</i>
   <i name="HFSCREENC">      0.00000000</i>
   <i type="int" name="NBANDSGWLOW">     0</i>
  </separator>
  <separator name="vdW DFT" >
   <i type="logical" name="LUSE_VDW"> F  </i>
   <i name="Zab_VDW">     -0.84910000</i>
   <i name="PARAM1">      0.12340000</i>
   <i name="PARAM2">      1.00000000</i>
   <i name="PARAM3">      0.00000000</i>
  </separator>
  <separator name="model GW" >
   <i type="int" name="MODEL_GW">     0</i>
   <i name="MODEL_EPS0">     10.61010259</i>
   <i name="MODEL_ALPHA">      1.00000000</i>
  </separator>
  <separator name="linear response parameters" >
   <i type="logical" name="LEPSILON"> F  </i>
   <i type="logical" name="LRPA"> F  </i>
   <i type="logical" name="LNABLA"> F  </i>
   <i type="logical" name="LVEL"> F  </i>
   <i type="int" name="KINTER">     0</i>
   <i name="CSHIFT">      0.10000000</i>
   <i name="OMEGAMAX">     -1.00000000</i>
   <i name="DEG_THRESHOLD">      0.00200000</i>
   <i name="RTIME">     -0.10000000</i>
   <i name="WPLASMAI">      0.00000000</i>
   <v name="DFIELD">      0.00000000      0.00000000      0.00000000</v>
   <v name="WPLASMA">      0.00000000      0.00000000      0.00000000      0.00000000      0.00000000      0.00000000      0.00000000      0.00000000      0.00000000</v>
  </separator>
  <separator name="orbital magnetization" >
   <i type="logical" name="NUCIND"> F  </i>
   <v name="MAGPOS">      0.00000000      0.00000000      0.00000000</v>
   <i type="logical" name="LNICSALL"> T  </i>
   <i type="logical" name="ORBITALMAG"> F  </i>
   <i type="logical" name="LMAGBLOCH"> F  </i>
   <i type="logical" name="LCHIMAG"> F  </i>
   <i type="logical" name="LGAUGE"> T  </i>
   <i type="int" name="MAGATOM">     0</i>
   <v name="MAGDIPOL">      0.00000000      0.00000000      0.00000000</v>
   <v name="AVECCONST">      0.00000000      0.00000000      0.00000000</v>
  </separator>
  <separator name="response functions" >
   <i type="logical" name="LADDER"> F  </i>
   <i type="logical" name="LRPAFORCE"> F  </i>
   <i type="logical" name="LFXC"> F  </i>
   <i type="logical" name="LHARTREE"> T  </i>
   <i type="int" name="IBSE">     0</i>
   <v type="int" name="KPOINT">    -1     0     0     0</v>
   <i type="logical" name="LTCTE"> F  </i>
   <i type="logical" name="LTETE"> F  </i>
   <i type="logical" name="LTRIPLET"> F  </i>
   <i type="logical" name="LFXCEPS"> F  </i>
   <i type="logical" name="LFXHEG"> F  </i>
   <i type="int" name="NATURALO">     2</i>
   <i type="logical" name="L2ORDER"> F  </i>
   <i type="logical" name="LMP2LT"> F  </i>
   <i type="logical" name="LUSEW"> F  </i>
   <i name="ENCUTGW">     -2.00000000</i>
   <i name="ENCUTGWSOFT">     -2.00000000</i>
   <i name="ENCUTLF">     -1.00000000</i>
   <i type="int" name="LMAXMP2">    -1</i>
   <i name="SCISSOR">      0.00000000</i>
   <i type="int" name="NOMEGA">     0</i>
   <i type="int" name="NOMEGAR">     0</i>
   <i type="int" name="NBANDSGW">    -1</i>
   <i type="int" name="NBANDSO">    -1</i>
   <i type="int" name="NBANDSV">    -1</i>
   <i type="int" name="NELM">   100</i>
   <i type="int" name="NELMHF">     1</i>
   <i type="int" name="DIM">     3</i>
   <i type="int" name="ANTIRES">     0</i>
   <i name="OMEGAMAX">    -30.00000000</i>
   <i name="OMEGAMIN">    -30.00000000</i>
   <i name="OMEGATL">   -200.00000000</i>
   <i type="int" name="OMEGAGRID">   140</i>
   <i name="CSHIFT">     -0.10000000</i>
   <i type="logical" name="SELFENERGY"> F  </i>
   <i type="logical" name="LSPECTRAL"> F  </i>
   <i type="logical" name="LSPECTRALGW"> F  </i>
   <i type="logical" name="LSINGLES"> F  </i>
   <i type="logical" name="LFERMIGW"> F  </i>
   <i type="logical" name="ODDONLYGW"> F  </i>
   <i type="logical" name="EVENONLYGW"> F  </i>
   <i type="int" name="NKREDLFX">     1</i>
   <i type="int" name="NKREDLFY">     1</i>
   <i type="int" name="NKREDLFZ">     1</i>
   <i type="int" name="MAXMEM">  2800</i>
   <i type="int" name="TELESCOPE">     0</i>
   <i type="int" name="TAUPAR">     1</i>
   <i type="int" name="OMEGAPAR">    -1</i>
   <i name="LAMBDA">      1.00000000</i>
  </separator>
  <separator name="External order field" >
   <i name="OFIELD_KAPPA">      0.00000000</i>
   <v name="OFIELD_K">      0.00000000      0.00000000      0.00000000</v>
   <i name="OFIELD_Q6_NEAR">      0.00000000</i>
   <i name="OFIELD_Q6_FAR">      0.00000000</i>
   <i name="OFIELD_A">      0.00000000</i>
  </separator>
 </parameters>
 <atominfo>
  <atoms>      16 </atoms>
  <types>       3 </types>
  <array name="atoms" >
   <dimension dim="1">ion</dimension>
   <field type="string">element</field>
   <field type="int">atomtype</field>
   <set>
    <rc><c>P </c><c>   1</c></rc>
    <rc><c>P </c><c>   1</c></rc>
    <rc><c>S </c><c>   2</c></rc>
    <rc><c>S </c><c>   2</c></rc>
    <rc><c>S </c><c>   2</c></rc>
    <rc><c>S </c><c>   2</c></rc>
    <rc><c>S </c><c>   2</c></rc>
    <rc><c>S </c><c>   2</c></rc>
    <rc><c>S </c><c>   2</c></rc>
    <rc><c>S </c><c>   2</c></rc>
    <rc><c>Li</c><c>   3</c></rc>
    <rc><c>Li</c><c>   3</c></rc>
    <rc><c>Li</c><c>   3</c></rc>
    <rc><c>Li</c><c>   3</c></rc>
    <rc><c>Li</c><c>   3</c></rc>
    <rc><c>Li</c><c>   3</c></rc>
   </set>
  </array>
  <array name="atomtypes" >
   <dimension dim="1">type</dimension>
   <field type="int">atomspertype</field>
   <field type="string">element</field>
   <field>mass</field>
   <field>valence</field>
   <field type="string">pseudopotential</field>
   <set>
    <rc><c>   2</c><c>P </c><c>     30.97400000</c><c>      5.00000000</c><c>  PAW P 26Mar2009                       </c></rc>
    <rc><c>   8</c><c>S </c><c>     32.06600000</c><c>      6.00000000</c><c>  PAW S 27Mar2009                       </c></rc>
    <rc><c>   6</c><c>Li</c><c>      7.01000000</c><c>      3.00000000</c><c>  PAW Li_sv 10Sep2004                   </c></rc>
   </set>
  </array>
 </atominfo>
 <structure name="initialpos" >
  <crystal>
   <varray name="basis" >
    <v>       7.77143140       0.00000000       0.00000000 </v>
    <v>       0.00000000       6.13265643       0.00000000 </v>
    <v>       0.00000000       0.00000000       5.93661196 </v>
   </varray>
   <i name="volume">    282.93606905 </i>
   <varray name="rec_basis" >
    <v>       0.12867642       0.00000000       0.00000000 </v>
    <v>       0.00000000       0.16306147       0.00000000 </v>
    <v>       0.00000000       0.00000000       0.16844625 </v>
   </varray>
  </crystal>
  <varray name="positions" >
   <v>       0.00000000       0.27249789       0.33460600 </v>
   <v>       0.50000000       0.72750211       0.83460600 </v>
   <v>       0.20890177       0.08297993       0.26126524 </v>
   <v>       0.29109823       0.91702007       0.76126524 </v>
   <v>       0.70890177       0.91702007       0.76126524 </v>
   <v>       0.79109823       0.08297993       0.26126524 </v>
   <v>       0.00000000       0.52590243       0.11481892 </v>
   <v>       0.50000000       0.47409757       0.61481892 </v>
   <v>       0.00000000       0.38637700       0.65624582 </v>
   <v>       0.50000000       0.61362300       0.15624582 </v>
   <v>       0.00000000       0.93368643       0.91990922 </v>
   <v>       0.50000000       0.06631357       0.41990922 </v>
   <v>       0.26621287       0.26665959       0.86195138 </v>
   <v>       0.23378713       0.73334041       0.36195138 </v>
   <v>       0.76621287       0.73334041       0.36195138 </v>
   <v>       0.73378713       0.26665959       0.86195138 </v>
  </varray>
 </structure>
 <calculation>
  <scstep>
   <time name="dav">    0.20    0.22</time>
   <time name="total">    0.22    0.25</time>
   <energy>
    <i name="alphaZ">     69.74352290 </i>
    <i name="ewald">  -2773.22408606 </i>
    <i name="hartreedc">   -601.33944673 </i>
    <i name="XCdc">    182.00605856 </i>
    <i name="pawpsdc">   2494.22442938 </i>
    <i name="pawaedc">  -2541.12215007 </i>
    <i name="eentropy">      0.00000000 </i>
    <i name="bandstr">   -112.88998387 </i>
    <i name="atom">   3769.08782378 </i>
    <i name="e_fr_energy">    486.48616790 </i>
    <i name="e_wo_entrp">    486.48616790 </i>
    <i name="e_0_energy">    486.48616790 </i>
   </energy>
  </scstep>
  <scstep>
   <time name="dav">    0.20    0.20</time>
   <time name="total">    0.20    0.20</time>
   <energy>
    <i name="e_fr_energy">    -11.75708738 </i>
    <i name="e_wo_entrp">    -11.75708738 </i>
    <i name="e_0_energy">    -11.75708738 </i>
   </energy>
  </scstep>
  <scstep>
   <time name="dav">    0.23    0.23</time>
   <time name="total">    0.23    0.23</time>
   <energy>
    <i name="e_fr_energy">    -71.35675032 </i>
    <i name="e_wo_entrp">    -71.35675032 </i>
    <i name="e_0_energy">    -71.35675032 </i>
   </energy>
  </scstep>
  <scstep>
   <time name="dav">    0.28    0.28</time>
   <time name="total">    0.28    0.28</time>
   <energy>
    <i name="e_fr_energy">    -77.25756833 </i>
    <i name="e_wo_entrp">    -77.25756833 </i>
    <i name="e_0_energy">    -77.25756833 </i>
   </energy>
  </scstep>
  <scstep>
   <time name="dav">    0.24    0.24</time>
   <time name="total">    0.26    0.26</time>
   <energy>
    <i name="e_fr_energy">    -77.94734156 </i>
    <i name="e_wo_entrp">    -77.94734156 </i>
    <i name="e_0_energy">    -77.94734156 </i>
   </energy>
  </scstep>
  <scstep>
   <time name="diag">    0.05    0.05</time>
   <time name="diis">    0.09    0.09</time>
   <time name="orth">    0.01    0.01</time>
   <time name="total">    0.17    0.17</time>
   <energy>
    <i name="e_fr_energy">    -76.02291427 </i>
    <i name="e_wo_entrp">    -76.02291427 </i>
    <i name="e_0_energy">    -76.02291427 </i>
   </energy>
  </scstep>
  <scstep>
   <time name="diag">    0.05    0.05</time>
   <time name="diis">    0.09    0.09</time>
   <time name="orth">    0.01    0.01</time>
   <time name="total">    0.17    0.17</time>
   <energy>
    <i name="e_fr_energy">    -75.65338459 </i>
    <i name="e_wo_entrp">    -75.65338459 </i>
    <i name="e_0_energy">    -75.65338459 </i>
   </energy>
  </scstep>
  <scstep>
   <time name="diag">    0.05    0.05</time>
   <time name="diis">    0.11    0.11</time>
   <time name="orth">    0.01    0.01</time>
   <time name="total">    0.19    0.19</time>
   <energy>
    <i name="e_fr_energy">    -75.57051167 </i>
    <i name="e_wo_entrp">    -75.57051167 </i>
    <i name="e_0_energy">    -75.57051167 </i>
   </energy>
  </scstep>
  <scstep>
   <time name="diag">    0.05    0.05</time>
   <time name="diis">    0.11    0.11</time>
   <time name="orth">    0.01    0.01</time>
   <time name="total">    0.19    0.19</time>
   <energy>
    <i name="e_fr_energy">    -75.56593033 </i>
    <i name="e_wo_entrp">    -75.56593033 </i>
    <i name="e_0_energy">    -75.56593033 </i>
   </energy>
  </scstep>
  <scstep>
   <time name="diag">    0.05    0.05</time>
   <time name="diis">    0.13    0.13</time>
   <time name="orth">    0.01    0.01</time>
   <time name="total">    0.22    0.22</time>
   <energy>
    <i name="e_fr_energy">    -75.56660439 </i>
    <i name="e_wo_entrp">    -75.56660439 </i>
    <i name="e_0_energy">    -75.56660439 </i>
   </energy>
  </scstep>
  <scstep>
   <time name="diag">    0.05    0.05</time>
   <time name="diis">    0.12    0.12</time>
   <time name="orth">    0.01    0.01</time>
   <time name="total">    0.21    0.21</time>
   <energy>
    <i name="e_fr_energy">    -75.56706605 </i>
    <i name="e_wo_entrp">    -75.56706605 </i>
    <i name="e_0_energy">    -75.56706605 </i>
   </energy>
  </scstep>
  <scstep>
   <time name="diag">    0.05    0.05</time>
   <time name="diis">    0.11    0.11</time>
   <time name="orth">    0.01    0.01</time>
   <time name="total">    0.20    0.20</time>
   <energy>
    <i name="e_fr_energy">    -75.56731749 </i>
    <i name="e_wo_entrp">    -75.56731749 </i>
    <i name="e_0_energy">    -75.56731749 </i>
   </energy>
  </scstep>
  <scstep>
   <time name="diag">    0.05    0.05</time>
   <time name="diis">    0.09    0.09</time>
   <time name="orth">    0.01    0.01</time>
   <time name="total">    0.17    0.17</time>
   <energy>
    <i name="e_fr_energy">    -75.56744825 </i>
    <i name="e_wo_entrp">    -75.56744825 </i>
    <i name="e_0_energy">    -75.56744825 </i>
   </energy>
  </scstep>
  <scstep>
   <time name="diag">    0.05    0.05</time>
   <time name="diis">    0.10    0.10</time>
   <time name="orth">    0.01    0.01</time>
   <time name="total">    0.18    0.18</time>
   <energy>
    <i name="e_fr_energy">    -75.56750974 </i>
    <i name="e_wo_entrp">    -75.56750974 </i>
    <i name="e_0_energy">    -75.56750974 </i>
   </energy>
  </scstep>
  <scstep>
   <time name="diag">    0.05    0.05</time>
   <time name="diis">    0.09    0.09</time>
   <time name="orth">    0.01    0.01</time>
   <time name="total">    0.17    0.17</time>
   <energy>
    <i name="e_fr_energy">    -75.56754368 </i>
    <i name="e_wo_entrp">    -75.56754368 </i>
    <i name="e_0_energy">    -75.56754368 </i>
   </energy>
  </scstep>
  <scstep>
   <time name="diag">    0.05    0.05</time>
   <time name="diis">    0.07    0.07</time>
   <time name="orth">    0.01    0.01</time>
   <time name="total">    0.13    0.13</time>
   <energy>
    <i name="alphaZ">     69.74352290 </i>
    <i name="ewald">  -2773.22408606 </i>
    <i name="hartreedc">   -626.55133784 </i>
    <i name="XCdc">    185.04092867 </i>
    <i name="pawpsdc">   7484.41603955 </i>
    <i name="pawaedc">  -7535.13460601 </i>
    <i name="eentropy">      0.00000000 </i>
    <i name="bandstr">   -648.94584360 </i>
    <i name="atom">   3769.08782378 </i>
    <i name="e_fr_energy">    -75.56755861 </i>
    <i name="e_wo_entrp">    -75.56755861 </i>
    <i name="e_0_energy">    -75.56755861 </i>
   </energy>
  </scstep>
  <structure>
   <crystal>
    <varray name="basis" >
     <v>       7.77143140       0.00000000       0.00000000 </v>
     <v>       0.00000000       6.13265643       0.00000000 </v>
     <v>       0.00000000       0.00000000       5.93661196 </v>
    </varray>
    <i name="volume">    282.93606905 </i>
    <varray name="rec_basis" >
     <v>       0.12867642       0.00000000       0.00000000 </v>
     <v>       0.00000000       0.16306147       0.00000000 </v>
     <v>       0.00000000       0.00000000       0.16844625 </v>
    </varray>
   </crystal>
   <varray name="positions" >
    <v>       0.00000000       0.27249789       0.33460600 </v>
    <v>       0.50000000       0.72750211       0.83460600 </v>
    <v>       0.20890177       0.08297993       0.26126524 </v>
    <v>       0.29109823       0.91702007       0.76126524 </v>
    <v>       0.70890177       0.91702007       0.76126524 </v>
    <v>       0.79109823       0.08297993       0.26126524 </v>
    <v>       0.00000000       0.52590243       0.11481892 </v>
    <v>       0.50000000       0.47409757       0.61481892 </v>
    <v>       0.00000000       0.38637700       0.65624582 </v>
    <v>       0.50000000       0.61362300       0.15624582 </v>
    <v>       0.00000000       0.93368643       0.91990922 </v>
    <v>       0.50000000       0.06631357       0.41990922 </v>
    <v>       0.26621287       0.26665959       0.86195138 </v>
    <v>       0.23378713       0.73334041       0.36195138 </v>
    <v>       0.76621287       0.73334041       0.36195138 </v>
    <v>       0.73378713       0.26665959       0.86195138 </v>
   </varray>
  </structure>
  <varray name="forces" >
   <v>       0.00000000      -0.06666233       0.11899780 </v>
   <v>       0.00000000       0.06666233       0.11899780 </v>
   <v>      -0.23001691       0.72473533      -0.87606179 </v>
   <v>       0.23001691      -0.72473533      -0.87606179 </v>
   <v>      -0.23001691      -0.72473533      -0.87606179 </v>
   <v>       0.23001691       0.72473533      -0.87606179 </v>
   <v>       0.00000000       0.38506173       0.65690674 </v>
   <v>       0.00000000      -0.38506173       0.65690674 </v>
   <v>       0.00000000      -0.39233785       0.14761944 </v>
   <v>       0.00000000       0.39233785       0.14761944 </v>
   <v>       0.00000000      -0.13482070       0.37026903 </v>
   <v>       0.00000000       0.13482070       0.37026903 </v>
   <v>       0.07308032       0.77084388       0.22916528 </v>
   <v>      -0.07308032      -0.77084388       0.22916528 </v>
   <v>       0.07308032      -0.77084388       0.22916528 </v>
   <v>      -0.07308032       0.77084388       0.22916528 </v>
  </varray>
  <varray name="stress" >
   <v>     -26.04372188       0.00000000       0.00000000 </v>
   <v>       0.00000000      10.08388842       0.00000000 </v>
   <v>       0.00000000       0.00000000      18.48174662 </v>
  </varray>
  <energy>
   <i name="e_fr_energy">    -75.56755861 </i>
   <i name="e_wo_entrp">    -75.56755861 </i>
   <i name="e_0_energy">      0.00000000 </i>
  </energy>
  <time name="totalsc">    3.37    3.41</time>
 </calculation>
 <calculation>
  <scstep>
   <time name="dav">    0.18    0.18</time>
   <time name="total">    0.20    0.21</time>
   <energy>
    <i name="alphaZ">     69.66104380 </i>
    <i name="ewald">  -2771.65713813 </i>
    <i name="hartreedc">   -626.81941690 </i>
    <i name="XCdc">    185.04089061 </i>
    <i name="pawpsdc">   7484.55247334 </i>
    <i name="pawaedc">  -7535.26846205 </i>
    <i name="eentropy">      0.00000000 </i>
    <i name="bandstr">   -650.47868534 </i>
    <i name="atom">   3769.08782378 </i>
    <i name="e_fr_energy">    -75.88147088 </i>
    <i name="e_wo_entrp">    -75.88147088 </i>
    <i name="e_0_energy">    -75.88147088 </i>
   </energy>
  </scstep>
  <scstep>
   <time name="diag">    0.05    0.05</time>
   <time name="diis">    0.10    0.10</time>
   <time name="orth">    0.01    0.01</time>
   <time name="total">    0.18    0.18</time>
   <energy>
    <i name="e_fr_energy">    -76.03375599 </i>
    <i name="e_wo_entrp">    -76.03375599 </i>
    <i name="e_0_energy">    -76.03375599 </i>
   </energy>
  </scstep>
  <scstep>
   <time name="diag">    0.05    0.05</time>
   <time name="diis">    0.13    0.13</time>
   <time name="orth">    0.01    0.01</time>
   <time name="total">    0.21    0.21</time>
   <energy>
    <i name="e_fr_energy">    -76.00387512 </i>
    <i name="e_wo_entrp">    -76.00387512 </i>
    <i name="e_0_energy">    -76.00387512 </i>
   </energy>
  </scstep>
  <scstep>
   <time name="diag">    0.05    0.05</time>
   <time name="diis">    0.11    0.11</time>
   <time name="orth">    0.01    0.01</time>
   <time name="total">    0.19    0.19</time>
   <energy>
    <i name="e_fr_energy">    -75.99204518 </i>
    <i name="e_wo_entrp">    -75.99204518 </i>
    <i name="e_0_energy">    -75.99204518 </i>
   </energy>
  </scstep>
  <scstep>
   <time name="diag">    0.05    0.05</time>
   <time name="diis">    0.14    0.14</time>
   <time name="orth">    0.01    0.01</time>
   <time name="total">    0.22    0.22</time>
   <energy>
    <i name="e_fr_energy">    -75.99404439 </i>
    <i name="e_wo_entrp">    -75.99404439 </i>
    <i name="e_0_energy">    -75.99404439 </i>
   </energy>
  </scstep>
  <scstep>
   <time name="diag">    0.05    0.05</time>
   <time name="diis">    0.12    0.12</time>
   <time name="orth">    0.01    0.01</time>
   <time name="total">    0.20    0.20</time>
   <energy>
    <i name="e_fr_energy">    -75.99460260 </i>
    <i name="e_wo_entrp">    -75.99460260 </i>
    <i name="e_0_energy">    -75.99460260 </i>
   </energy>
  </scstep>
  <scstep>
   <time name="diag">    0.05    0.05</time>
   <time name="diis">    0.13    0.13</time>
   <time name="orth">    0.01    0.01</time>
   <time name="total">    0.21    0.21</time>
   <energy>
    <i name="e_fr_energy">    -75.99465781 </i>
    <i name="e_wo_entrp">    -75.99465781 </i>
    <i name="e_0_energy">    -75.99465781 </i>
   </energy>
  </scstep>
  <scstep>
   <time name="diag">    0.05    0.05</time>
   <time name="diis">    0.12    0.12</time>
   <time name="orth">    0.01    0.01</time>
   <time name="total">    0.21    0.21</time>
   <energy>
    <i name="e_fr_energy">    -75.99486306 </i>
    <i name="e_wo_entrp">    -75.99486306 </i>
    <i name="e_0_energy">    -75.99486306 </i>
   </energy>
  </scstep>
  <scstep>
   <time name="diag">    0.05    0.05</time>
   <time name="diis">    0.12    0.12</time>
   <time name="orth">    0.01    0.01</time>
   <time name="total">    0.20    0.20</time>
   <energy>
    <i name="e_fr_energy">    -75.99496955 </i>
    <i name="e_wo_entrp">    -75.99496955 </i>
    <i name="e_0_energy">    -75.99496955 </i>
   </energy>
  </scstep>
  <scstep>
   <time name="diag">    0.05    0.05</time>
   <time name="diis">    0.09    0.09</time>
   <time name="orth">    0.01    0.01</time>
   <time name="total">    0.17    0.17</time>
   <energy>
    <i name="e_fr_energy">    -75.99500036 </i>
    <i name="e_wo_entrp">    -75.99500036 </i>
    <i name="e_0_energy">    -75.99500036 </i>
   </energy>
  </scstep>
  <scstep>
   <time name="diag">    0.05    0.05</time>
   <time name="diis">    0.07    0.07</time>
   <time name="orth">    0.01    0.01</time>
   <time name="total">    0.14    0.14</time>
   <energy>
    <i name="alphaZ">     69.66104380 </i>
    <i name="ewald">  -2771.65713813 </i>
    <i name="hartreedc">   -626.57874749 </i>
    <i name="XCdc">    185.02752242 </i>
    <i name="pawpsdc">   7557.00441344 </i>
    <i name="pawaedc">  -7607.84135069 </i>
    <i name="eentropy">      0.00000000 </i>
    <i name="bandstr">   -650.69857245 </i>
    <i name="atom">   3769.08782378 </i>
    <i name="e_fr_energy">    -75.99500531 </i>
    <i name="e_wo_entrp">    -75.99500531 </i>
    <i name="e_0_energy">    -75.99500531 </i>
   </energy>
  </scstep>
  <structure>
   <crystal>
    <varray name="basis" >
     <v>       7.66366261       0.00000000       0.00000000 </v>
     <v>       0.00000000       6.16558445       0.00000000 </v>
     <v>       0.00000000       0.00000000       5.99503318 </v>
    </varray>
    <i name="volume">    283.27106708 </i>
    <varray name="rec_basis" >
     <v>       0.13048591       0.00000000       0.00000000 </v>
     <v>       0.00000000       0.16219063       0.00000000 </v>
     <v>       0.00000000       0.00000000       0.16680475 </v>
    </varray>
   </crystal>
   <varray name="positions" >
    <v>       0.00000000       0.27197349       0.33557301 </v>
    <v>       0.50000000       0.72802651       0.83557301 </v>
    <v>       0.20747390       0.08868108       0.25414611 </v>
    <v>       0.29252610       0.91131892       0.75414611 </v>
    <v>       0.70747390       0.91131892       0.75414611 </v>
    <v>       0.79252610       0.08868108       0.25414611 </v>
    <v>       0.00000000       0.52893153       0.12015713 </v>
    <v>       0.50000000       0.47106847       0.62015713 </v>
    <v>       0.00000000       0.38329067       0.65744541 </v>
    <v>       0.50000000       0.61670933       0.15744541 </v>
    <v>       0.00000000       0.93262586       0.92291813 </v>
    <v>       0.50000000       0.06737414       0.42291813 </v>
    <v>       0.26666653       0.27272345       0.86381365 </v>
    <v>       0.23333347       0.72727655       0.36381365 </v>
    <v>       0.76666653       0.72727655       0.36381365 </v>
    <v>       0.73333347       0.27272345       0.86381365 </v>
   </varray>
  </structure>
  <varray name="forces" >
   <v>       0.00000000       0.63180636       0.28730655 </v>
   <v>       0.00000000      -0.63180636       0.28730655 </v>
   <v>       0.41720015       0.05521445      -0.74887740 </v>
   <v>      -0.41720015      -0.05521445      -0.74887740 </v>
   <v>       0.41720015      -0.05521445      -0.74887740 </v>
   <v>      -0.41720015       0.05521445      -0.74887740 </v>
   <v>       0.00000000       0.32029164       0.65225417 </v>
   <v>       0.00000000      -0.32029164       0.65225417 </v>
   <v>       0.00000000      -0.42400306      -0.07732116 </v>
   <v>       0.00000000       0.42400306      -0.07732116 </v>
   <v>       0.00000000      -0.11627608       0.34687820 </v>
   <v>       0.00000000       0.11627608       0.34687820 </v>
   <v>       0.08647103       0.45829872       0.14431852 </v>
   <v>      -0.08647103      -0.45829872       0.14431852 </v>
   <v>       0.08647103      -0.45829872       0.14431852 </v>
   <v>      -0.08647103       0.45829872       0.14431852 </v>
  </varray>
  <varray name="stress" >
   <v>      -2.19593681       0.00000000       0.00000000 </v>
   <v>       0.00000000       3.25425371       0.00000000 </v>
   <v>       0.00000000       0.00000000      -1.38195997 </v>
  </varray>
  <energy>
   <i name="e_fr_energy">    -75.99500531 </i>
   <i name="e_wo_entrp">    -75.99500531 </i>
   <i name="e_0_energy">      0.00000000 </i>
  </energy>
  <time name="totalsc">    2.32    2.34</time>
 </calculation>
 <calculation>
  <scstep>
   <time name="dav">    0.18    0.18</time>
   <time name="total">    0.20    0.20</time>
   <energy>
    <i name="alphaZ">     69.59997143 </i>
    <i name="ewald">  -2768.08105712 </i>
    <i name="hartreedc">   -628.46026042 </i>
    <i name="XCdc">    185.06511526 </i>
    <i name="pawpsdc">   7556.94195111 </i>
    <i name="pawaedc">  -7607.77930034 </i>
    <i name="eentropy">      0.00000000 </i>
    <i name="bandstr">   -652.40010016 </i>
    <i name="atom">   3769.08782378 </i>
    <i name="e_fr_energy">    -76.02585647 </i>
    <i name="e_wo_entrp">    -76.02585647 </i>
    <i name="e_0_energy">    -76.02585647 </i>
   </energy>
  </scstep>
  <scstep>
   <time name="diag">    0.05    0.05</time>
   <time name="diis">    0.10    0.10</time>
   <time name="orth">    0.01    0.01</time>
   <time name="total">    0.18    0.18</time>
   <energy>
    <i name="e_fr_energy">    -76.17309348 </i>
    <i name="e_wo_entrp">    -76.17309348 </i>
    <i name="e_0_energy">    -76.17309348 </i>
   </energy>
  </scstep>
  <scstep>
   <time name="diag">    0.05    0.05</time>
   <time name="diis">    0.13    0.13</time>
   <time name="orth">    0.01    0.01</time>
   <time name="total">    0.21    0.21</time>
   <energy>
    <i name="e_fr_energy">    -76.14805921 </i>
    <i name="e_wo_entrp">    -76.14805921 </i>
    <i name="e_0_energy">    -76.14805921 </i>
   </energy>
  </scstep>
  <scstep>
   <time name="diag">    0.05    0.05</time>
   <time name="diis">    0.11    0.11</time>
   <time name="orth">    0.01    0.01</time>
   <time name="total">    0.19    0.19</time>
   <energy>
    <i name="e_fr_energy">    -76.13577029 </i>
    <i name="e_wo_entrp">    -76.13577029 </i>
    <i name="e_0_energy">    -76.13577029 </i>
   </energy>
  </scstep>
  <scstep>
   <time name="diag">    0.05    0.05</time>
   <time name="diis">    0.14    0.14</time>
   <time name="orth">    0.01    0.01</time>
   <time name="total">    0.22    0.22</time>
   <energy>
    <i name="e_fr_energy">    -76.13777302 </i>
    <i name="e_wo_entrp">    -76.13777302 </i>
    <i name="e_0_energy">    -76.13777302 </i>
   </energy>
  </scstep>
  <scstep>
   <time name="diag">    0.05    0.05</time>
   <time name="diis">    0.11    0.11</time>
   <time name="orth">    0.01    0.01</time>
   <time name="total">    0.19    0.19</time>
   <energy>
    <i name="e_fr_energy">    -76.13839101 </i>
    <i name="e_wo_entrp">    -76.13839101 </i>
    <i name="e_0_energy">    -76.13839101 </i>
   </energy>
  </scstep>
  <scstep>
   <time name="diag">    0.05    0.05</time>
   <time name="diis">    0.12    0.12</time>
   <time name="orth">    0.01    0.01</time>
   <time name="total">    0.20    0.20</time>
   <energy>
    <i name="e_fr_energy">    -76.13838553 </i>
    <i name="e_wo_entrp">    -76.13838553 </i>
    <i name="e_0_energy">    -76.13838553 </i>
   </energy>
  </scstep>
  <scstep>
   <time name="diag">    0.05    0.05</time>
   <time name="diis">    0.12    0.12</time>
   <time name="orth">    0.01    0.01</time>
   <time name="total">    0.20    0.20</time>
   <energy>
    <i name="e_fr_energy">    -76.13860401 </i>
    <i name="e_wo_entrp">    -76.13860401 </i>
    <i name="e_0_energy">    -76.13860401 </i>
   </energy>
  </scstep>
  <scstep>
   <time name="diag">    0.05    0.05</time>
   <time name="diis">    0.12    0.12</time>
   <time name="orth">    0.01    0.01</time>
   <time name="total">    0.20    0.20</time>
   <energy>
    <i name="e_fr_energy">    -76.13871107 </i>
    <i name="e_wo_entrp">    -76.13871107 </i>
    <i name="e_0_energy">    -76.13871107 </i>
   </energy>
  </scstep>
  <scstep>
   <time name="diag">    0.05    0.05</time>
   <time name="diis">    0.09    0.09</time>
   <time name="orth">    0.01    0.01</time>
   <time name="total">    0.17    0.17</time>
   <energy>
    <i name="e_fr_energy">    -76.13874199 </i>
    <i name="e_wo_entrp">    -76.13874199 </i>
    <i name="e_0_energy">    -76.13874199 </i>
   </energy>
  </scstep>
  <scstep>
   <time name="diag">    0.05    0.05</time>
   <time name="diis">    0.07    0.07</time>
   <time name="orth">    0.01    0.01</time>
   <time name="total">    0.13    0.13</time>
   <energy>
    <i name="alphaZ">     69.59997143 </i>
    <i name="ewald">  -2768.08105712 </i>
    <i name="hartreedc">   -628.56713199 </i>
    <i name="XCdc">    185.07428964 </i>
    <i name="pawpsdc">   7654.25400481 </i>
    <i name="pawaedc">  -7705.18919557 </i>
    <i name="eentropy">      0.00000000 </i>
    <i name="bandstr">   -652.31745478 </i>
    <i name="atom">   3769.08782378 </i>
    <i name="e_fr_energy">    -76.13874980 </i>
    <i name="e_wo_entrp">    -76.13874980 </i>
    <i name="e_0_energy">    -76.13874980 </i>
   </energy>
  </scstep>
  <structure>
   <crystal>
    <varray name="basis" >
     <v>       7.55356667       0.00000000       0.00000000 </v>
     <v>       0.00000000       6.19922351       0.00000000 </v>
     <v>       0.00000000       0.00000000       6.05471594 </v>
    </varray>
    <i name="volume">    283.51963092 </i>
    <varray name="rec_basis" >
     <v>       0.13238779       0.00000000       0.00000000 </v>
     <v>       0.00000000       0.16131053       0.00000000 </v>
     <v>       0.00000000       0.00000000       0.16516051 </v>
    </varray>
   </crystal>
   <varray name="positions" >
    <v>       0.00000000       0.27144063       0.33655127 </v>
    <v>       0.50000000       0.72855937       0.83655127 </v>
    <v>       0.20599467       0.09447423       0.24694412 </v>
    <v>       0.29400533       0.90552577       0.74694412 </v>
    <v>       0.70599467       0.90552577       0.74694412 </v>
    <v>       0.79400533       0.09447423       0.24694412 </v>
    <v>       0.00000000       0.53200951       0.12555748 </v>
    <v>       0.50000000       0.46799049       0.62555748 </v>
    <v>       0.00000000       0.38015453       0.65865898 </v>
    <v>       0.50000000       0.61984547       0.15865898 </v>
    <v>       0.00000000       0.93154818       0.92596207 </v>
    <v>       0.50000000       0.06845182       0.42596207 </v>
    <v>       0.26713651       0.27888516       0.86569759 </v>
    <v>       0.23286349       0.72111484       0.36569759 </v>
    <v>       0.76713651       0.72111484       0.36569759 </v>
    <v>       0.73286349       0.27888516       0.86569759 </v>
   </varray>
  </structure>
  <varray name="forces" >
   <v>       0.00000000       1.38484988       0.51045664 </v>
   <v>       0.00000000      -1.38484988       0.51045664 </v>
   <v>       1.13225465      -0.54506456      -0.65905155 </v>
   <v>      -1.13225465       0.54506456      -0.65905155 </v>
   <v>       1.13225465       0.54506456      -0.65905155 </v>
   <v>      -1.13225465      -0.54506456      -0.65905155 </v>
   <v>       0.00000000       0.27423716       0.64489400 </v>
   <v>       0.00000000      -0.27423716       0.64489400 </v>
   <v>       0.00000000      -0.45568065      -0.32356150 </v>
   <v>       0.00000000       0.45568065      -0.32356150 </v>
   <v>       0.00000000      -0.10227306       0.30853600 </v>
   <v>       0.00000000       0.10227306       0.30853600 </v>
   <v>       0.08757773       0.25195583       0.08888898 </v>
   <v>      -0.08757773      -0.25195583       0.08888898 </v>
   <v>       0.08757773      -0.25195583       0.08888898 </v>
   <v>      -0.08757773       0.25195583       0.08888898 </v>
  </varray>
  <varray name="stress" >
   <v>      24.57962861       0.00000000       0.00000000 </v>
   <v>       0.00000000       1.77343278       0.00000000 </v>
   <v>       0.00000000       0.00000000     -19.73493826 </v>
  </varray>
  <energy>
   <i name="e_fr_energy">    -76.13874980 </i>
   <i name="e_wo_entrp">    -76.13874980 </i>
   <i name="e_0_energy">      0.00000000 </i>
  </energy>
  <time name="totalsc">    2.29    2.31</time>
 </calculation>
 <calculation>
  <scstep>
   <time name="dav">    0.18    0.18</time>
   <time name="total">    0.20    0.21</time>
   <energy>
    <i name="alphaZ">     69.46249264 </i>
    <i name="ewald">  -2770.97514687 </i>
    <i name="hartreedc">   -624.68757154 </i>
    <i name="XCdc">    184.85696243 </i>
    <i name="pawpsdc">   7654.18438498 </i>
    <i name="pawaedc">  -7705.12001031 </i>
    <i name="eentropy">      0.00000000 </i>
    <i name="bandstr">   -653.09233479 </i>
    <i name="atom">   3769.08782378 </i>
    <i name="e_fr_energy">    -76.28339969 </i>
    <i name="e_wo_entrp">    -76.28339969 </i>
    <i name="e_0_energy">    -76.28339969 </i>
   </energy>
  </scstep>
  <scstep>
   <time name="diag">    0.05    0.05</time>
   <time name="diis">    0.10    0.10</time>
   <time name="orth">    0.01    0.01</time>
   <time name="total">    0.18    0.18</time>
   <energy>
    <i name="e_fr_energy">    -76.37593442 </i>
    <i name="e_wo_entrp">    -76.37593442 </i>
    <i name="e_0_energy">    -76.37593442 </i>
   </energy>
  </scstep>
  <scstep>
   <time name="diag">    0.05    0.05</time>
   <time name="diis">    0.13    0.13</time>
   <time name="orth">    0.01    0.01</time>
   <time name="total">    0.22    0.22</time>
   <energy>
    <i name="e_fr_energy">    -76.37570813 </i>
    <i name="e_wo_entrp">    -76.37570813 </i>
    <i name="e_0_energy">    -76.37570813 </i>
   </energy>
  </scstep>
  <scstep>
   <time name="diag">    0.05    0.05</time>
   <time name="diis">    0.13    0.13</time>
   <time name="orth">    0.01    0.01</time>
   <time name="total">    0.21    0.21</time>
   <energy>
    <i name="e_fr_energy">    -76.37481516 </i>
    <i name="e_wo_entrp">    -76.37481516 </i>
    <i name="e_0_energy">    -76.37481516 </i>
   </energy>
  </scstep>
  <scstep>
   <time name="diag">    0.05    0.05</time>
   <time name="diis">    0.12    0.12</time>
   <time name="orth">    0.01    0.01</time>
   <time name="total">    0.20    0.20</time>
   <energy>
    <i name="e_fr_energy">    -76.37413610 </i>
    <i name="e_wo_entrp">    -76.37413610 </i>
    <i name="e_0_energy">    -76.37413610 </i>
   </energy>
  </scstep>
  <scstep>
   <time name="diag">    0.05    0.05</time>
   <time name="diis">    0.12    0.12</time>
   <time name="orth">    0.01    0.01</time>
   <time name="total">    0.20    0.20</time>
   <energy>
    <i name="e_fr_energy">    -76.37456892 </i>
    <i name="e_wo_entrp">    -76.37456892 </i>
    <i name="e_0_energy">    -76.37456892 </i>
   </energy>
  </scstep>
  <scstep>
   <time name="diag">    0.05    0.05</time>
   <time name="diis">    0.12    0.12</time>
   <time name="orth">    0.01    0.01</time>
   <time name="total">    0.20    0.20</time>
   <energy>
    <i name="e_fr_energy">    -76.37468169 </i>
    <i name="e_wo_entrp">    -76.37468169 </i>
    <i name="e_0_energy">    -76.37468169 </i>
   </energy>
  </scstep>
  <scstep>
   <time name="diag">    0.05    0.05</time>
   <time name="diis">    0.11    0.11</time>
   <time name="orth">    0.01    0.01</time>
   <time name="total">    0.19    0.19</time>
   <energy>
    <i name="e_fr_energy">    -76.37476391 </i>
    <i name="e_wo_entrp">    -76.37476391 </i>
    <i name="e_0_energy">    -76.37476391 </i>
   </energy>
  </scstep>
  <scstep>
   <time name="diag">    0.05    0.05</time>
   <time name="diis">    0.10    0.10</time>
   <time name="orth">    0.01    0.01</time>
   <time name="total">    0.18    0.18</time>
   <energy>
    <i name="e_fr_energy">    -76.37479457 </i>
    <i name="e_wo_entrp">    -76.37479457 </i>
    <i name="e_0_energy">    -76.37479457 </i>
   </energy>
  </scstep>
  <scstep>
   <time name="diag">    0.05    0.05</time>
   <time name="diis">    0.08    0.08</time>
   <time name="orth">    0.01    0.01</time>
   <time name="total">    0.14    0.15</time>
   <energy>
    <i name="alphaZ">     69.46249264 </i>
    <i name="ewald">  -2770.97514687 </i>
    <i name="hartreedc">   -625.26711998 </i>
    <i name="XCdc">    184.89804541 </i>
    <i name="pawpsdc">   7513.54068275 </i>
    <i name="pawaedc">  -7564.41649408 </i>
    <i name="eentropy">      0.00000000 </i>
    <i name="bandstr">   -652.70508722 </i>
    <i name="atom">   3769.08782378 </i>
    <i name="e_fr_energy">    -76.37480356 </i>
    <i name="e_wo_entrp">    -76.37480356 </i>
    <i name="e_0_energy">    -76.37480356 </i>
   </energy>
  </scstep>
  <structure>
   <crystal>
    <varray name="basis" >
     <v>       7.53757766       0.00000000       0.00000000 </v>
     <v>       0.00000000       6.21814745       0.00000000 </v>
     <v>       0.00000000       0.00000000       6.06106604 </v>
    </varray>
    <i name="volume">    284.08076734 </i>
    <varray name="rec_basis" >
     <v>       0.13266862       0.00000000       0.00000000 </v>
     <v>       0.00000000       0.16081960       0.00000000 </v>
     <v>       0.00000000       0.00000000       0.16498748 </v>
    </varray>
   </crystal>
   <varray name="positions" >
    <v>       0.00000000       0.27517442       0.33853604 </v>
    <v>       0.50000000       0.72482558       0.83853604 </v>
    <v>       0.20793599       0.09573995       0.24148506 </v>
    <v>       0.29206401       0.90426005       0.74148506 </v>
    <v>       0.70793599       0.90426005       0.74148506 </v>
    <v>       0.79206401       0.09573995       0.24148506 </v>
    <v>       0.00000000       0.53430849       0.13009603 </v>
    <v>       0.50000000       0.46569151       0.63009603 </v>
    <v>       0.00000000       0.37730364       0.65829520 </v>
    <v>       0.50000000       0.62269636       0.15829520 </v>
    <v>       0.00000000       0.93072520       0.92835791 </v>
    <v>       0.50000000       0.06927480       0.42835791 </v>
    <v>       0.26757871       0.28263060       0.86687895 </v>
    <v>       0.23242129       0.71736940       0.36687895 </v>
    <v>       0.76757871       0.71736940       0.36687895 </v>
    <v>       0.73242129       0.28263060       0.86687895 </v>
   </varray>
  </structure>
  <varray name="forces" >
   <v>       0.00000000       0.49484138      -0.00371706 </v>
   <v>       0.00000000      -0.49484138      -0.00371706 </v>
   <v>       0.68083867      -0.27673190      -0.43030547 </v>
   <v>      -0.68083867       0.27673190      -0.43030547 </v>
   <v>       0.68083867       0.27673190      -0.43030547 </v>
   <v>      -0.68083867      -0.27673190      -0.43030547 </v>
   <v>       0.00000000       0.35141295       0.50533105 </v>
   <v>       0.00000000      -0.35141295       0.50533105 </v>
   <v>       0.00000000      -0.31246453      -0.10887012 </v>
   <v>       0.00000000       0.31246453      -0.10887012 </v>
   <v>       0.00000000      -0.06493780       0.28616439 </v>
   <v>       0.00000000       0.06493780       0.28616439 </v>
   <v>       0.07551529       0.11687315       0.09085135 </v>
   <v>      -0.07551529      -0.11687315       0.09085135 </v>
   <v>       0.07551529      -0.11687315       0.09085135 </v>
   <v>      -0.07551529       0.11687315       0.09085135 </v>
  </varray>
  <varray name="stress" >
   <v>       9.49919942       0.00000000       0.00000000 </v>
   <v>       0.00000000      -4.81124197       0.00000000 </v>
   <v>       0.00000000       0.00000000     -17.91382771 </v>
  </varray>
  <energy>
   <i name="e_fr_energy">    -76.37480356 </i>
   <i name="e_wo_entrp">    -76.37480356 </i>
   <i name="e_0_energy">      0.00000000 </i>
  </energy>
  <time name="totalsc">    2.11    2.13</time>
 </calculation>
 <calculation>
  <scstep>
   <time name="dav">    0.17    0.17</time>
   <time name="total">    0.19    0.20</time>
   <energy>
    <i name="alphaZ">     69.27247691 </i>
    <i name="ewald">  -2773.67307766 </i>
    <i name="hartreedc">   -620.61644963 </i>
    <i name="XCdc">    184.61144243 </i>
    <i name="pawpsdc">   7512.73976764 </i>
    <i name="pawaedc">  -7563.61779238 </i>
    <i name="eentropy">      0.00000000 </i>
    <i name="bandstr">   -654.12855169 </i>
    <i name="atom">   3769.08782378 </i>
    <i name="e_fr_energy">    -76.32436061 </i>
    <i name="e_wo_entrp">    -76.32436061 </i>
    <i name="e_0_energy">    -76.32436061 </i>
   </energy>
  </scstep>
  <scstep>
   <time name="diag">    0.05    0.05</time>
   <time name="diis">    0.10    0.10</time>
   <time name="orth">    0.01    0.01</time>
   <time name="total">    0.18    0.18</time>
   <energy>
    <i name="e_fr_energy">    -76.50567700 </i>
    <i name="e_wo_entrp">    -76.50567700 </i>
    <i name="e_0_energy">    -76.50567700 </i>
   </energy>
  </scstep>
  <scstep>
   <time name="diag">    0.05    0.05</time>
   <time name="diis">    0.13    0.13</time>
   <time name="orth">    0.01    0.01</time>
   <time name="total">    0.21    0.21</time>
   <energy>
    <i name="e_fr_energy">    -76.50775939 </i>
    <i name="e_wo_entrp">    -76.50775939 </i>
    <i name="e_0_energy">    -76.50775939 </i>
   </energy>
  </scstep>
  <scstep>
   <time name="diag">    0.05    0.05</time>
   <time name="diis">    0.13    0.13</time>
   <time name="orth">    0.01    0.01</time>
   <time name="total">    0.21    0.21</time>
   <energy>
    <i name="e_fr_energy">    -76.50471076 </i>
    <i name="e_wo_entrp">    -76.50471076 </i>
    <i name="e_0_energy">    -76.50471076 </i>
   </energy>
  </scstep>
  <scstep>
   <time name="diag">    0.05    0.05</time>
   <time name="diis">    0.12    0.12</time>
   <time name="orth">    0.01    0.01</time>
   <time name="total">    0.20    0.20</time>
   <energy>
    <i name="e_fr_energy">    -76.50472202 </i>
    <i name="e_wo_entrp">    -76.50472202 </i>
    <i name="e_0_energy">    -76.50472202 </i>
   </energy>
  </scstep>
  <scstep>
   <time name="diag">    0.05    0.05</time>
   <time name="diis">    0.13    0.13</time>
   <time name="orth">    0.01    0.01</time>
   <time name="total">    0.21    0.21</time>
   <energy>
    <i name="e_fr_energy">    -76.50537416 </i>
    <i name="e_wo_entrp">    -76.50537416 </i>
    <i name="e_0_energy">    -76.50537416 </i>
   </energy>
  </scstep>
  <scstep>
   <time name="diag">    0.05    0.05</time>
   <time name="diis">    0.12    0.12</time>
   <time name="orth">    0.01    0.01</time>
   <time name="total">    0.20    0.20</time>
   <energy>
    <i name="e_fr_energy">    -76.50564956 </i>
    <i name="e_wo_entrp">    -76.50564956 </i>
    <i name="e_0_energy">    -76.50564956 </i>
   </energy>
  </scstep>
  <scstep>
   <time name="diag">    0.05    0.05</time>
   <time name="diis">    0.12    0.12</time>
   <time name="orth">    0.01    0.01</time>
   <time name="total">    0.20    0.20</time>
   <energy>
    <i name="e_fr_energy">    -76.50578203 </i>
    <i name="e_wo_entrp">    -76.50578203 </i>
    <i name="e_0_energy">    -76.50578203 </i>
   </energy>
  </scstep>
  <scstep>
   <time name="diag">    0.05    0.05</time>
   <time name="diis">    0.11    0.11</time>
   <time name="orth">    0.01    0.01</time>
   <time name="total">    0.19    0.19</time>
   <energy>
    <i name="e_fr_energy">    -76.50582767 </i>
    <i name="e_wo_entrp">    -76.50582767 </i>
    <i name="e_0_energy">    -76.50582767 </i>
   </energy>
  </scstep>
  <scstep>
   <time name="diag">    0.05    0.05</time>
   <time name="diis">    0.06    0.06</time>
   <time name="orth">    0.01    0.01</time>
   <time name="total">    0.13    0.13</time>
   <energy>
    <i name="alphaZ">     69.27247691 </i>
    <i name="ewald">  -2773.67307766 </i>
    <i name="hartreedc">   -621.60325082 </i>
    <i name="XCdc">    184.68766881 </i>
    <i name="pawpsdc">   7355.01586920 </i>
    <i name="pawaedc">  -7405.81320558 </i>
    <i name="eentropy">      0.00000000 </i>
    <i name="bandstr">   -653.48013443 </i>
    <i name="atom">   3769.08782378 </i>
    <i name="e_fr_energy">    -76.50582979 </i>
    <i name="e_wo_entrp">    -76.50582979 </i>
    <i name="e_0_energy">    -76.50582979 </i>
   </energy>
  </scstep>
  <structure>
   <crystal>
    <varray name="basis" >
     <v>       7.51522499       0.00000000       0.00000000 </v>
     <v>       0.00000000       6.24460316       0.00000000 </v>
     <v>       0.00000000       0.00000000       6.06994350 </v>
    </varray>
    <i name="volume">    284.86000636 </i>
    <varray name="rec_basis" >
     <v>       0.13306322       0.00000000       0.00000000 </v>
     <v>       0.00000000       0.16013828       0.00000000 </v>
     <v>       0.00000000       0.00000000       0.16474618 </v>
    </varray>
   </crystal>
   <varray name="positions" >
    <v>       0.00000000       0.28037838       0.34130783 </v>
    <v>       0.50000000       0.71962162       0.84130783 </v>
    <v>       0.21065572       0.09750406       0.23386127 </v>
    <v>       0.28934428       0.90249594       0.73386127 </v>
    <v>       0.71065572       0.90249594       0.73386127 </v>
    <v>       0.78934428       0.09750406       0.23386127 </v>
    <v>       0.00000000       0.53751270       0.13643429 </v>
    <v>       0.50000000       0.46248730       0.63643429 </v>
    <v>       0.00000000       0.37333023       0.65778718 </v>
    <v>       0.50000000       0.62666977       0.15778718 </v>
    <v>       0.00000000       0.92957817       0.93170380 </v>
    <v>       0.50000000       0.07042183       0.43170380 </v>
    <v>       0.26819823       0.28785078       0.86852877 </v>
    <v>       0.23180177       0.71214922       0.36852877 </v>
    <v>       0.76819823       0.71214922       0.36852877 </v>
    <v>       0.73180177       0.28785078       0.86852877 </v>
   </varray>
  </structure>
  <varray name="forces" >
   <v>       0.00000000      -0.61288451      -0.73901333 </v>
   <v>       0.00000000       0.61288451      -0.73901333 </v>
   <v>       0.16899514       0.05005706      -0.12434638 </v>
   <v>      -0.16899514      -0.05005706      -0.12434638 </v>
   <v>       0.16899514      -0.05005706      -0.12434638 </v>
   <v>      -0.16899514       0.05005706      -0.12434638 </v>
   <v>       0.00000000       0.47486221       0.30488264 </v>
   <v>       0.00000000      -0.47486221       0.30488264 </v>
   <v>       0.00000000      -0.12684017       0.23662176 </v>
   <v>       0.00000000       0.12684017       0.23662176 </v>
   <v>       0.00000000      -0.01554326       0.24538068 </v>
   <v>       0.00000000       0.01554326       0.24538068 </v>
   <v>       0.04942283      -0.04346854       0.10041051 </v>
   <v>      -0.04942283       0.04346854       0.10041051 </v>
   <v>       0.04942283       0.04346854       0.10041051 </v>
   <v>      -0.04942283      -0.04346854       0.10041051 </v>
  </varray>
  <varray name="stress" >
   <v>      -7.38488826       0.00000000       0.00000000 </v>
   <v>       0.00000000     -11.65576615       0.00000000 </v>
   <v>       0.00000000       0.00000000     -14.16113398 </v>
  </varray>
  <energy>
   <i name="e_fr_energy">    -76.50582979 </i>
   <i name="e_wo_entrp">    -76.50582979 </i>
   <i name="e_0_energy">      0.00000000 </i>
  </energy>
  <time name="totalsc">    2.12    2.13</time>
 </calculation>
 <calculation>
  <scstep>
   <time name="dav">    0.21    0.21</time>
   <time name="total">    0.24    0.24</time>
   <energy>
    <i name="alphaZ">     69.25325737 </i>
    <i name="ewald">  -2773.86065785 </i>
    <i name="hartreedc">   -621.18951374 </i>
    <i name="XCdc">    184.66083454 </i>
    <i name="pawpsdc">   7354.64805084 </i>
    <i name="pawaedc">  -7405.44595263 </i>
    <i name="eentropy">      0.00000000 </i>
    <i name="bandstr">   -653.65902941 </i>
    <i name="atom">   3769.08782378 </i>
    <i name="e_fr_energy">    -76.50518709 </i>
    <i name="e_wo_entrp">    -76.50518709 </i>
    <i name="e_0_energy">    -76.50518709 </i>
   </energy>
  </scstep>
  <scstep>
   <time name="diag">    0.05    0.05</time>
   <time name="diis">    0.10    0.10</time>
   <time name="orth">    0.01    0.01</time>
   <time name="total">    0.18    0.18</time>
   <energy>
    <i name="e_fr_energy">    -76.50680041 </i>
    <i name="e_wo_entrp">    -76.50680041 </i>
    <i name="e_0_energy">    -76.50680041 </i>
   </energy>
  </scstep>
  <scstep>
   <time name="diag">    0.05    0.05</time>
   <time name="diis">    0.13    0.13</time>
   <time name="orth">    0.01    0.01</time>
   <time name="total">    0.21    0.21</time>
   <energy>
    <i name="e_fr_energy">    -76.50685650 </i>
    <i name="e_wo_entrp">    -76.50685650 </i>
    <i name="e_0_energy">    -76.50685650 </i>
   </energy>
  </scstep>
  <scstep>
   <time name="diag">    0.05    0.05</time>
   <time name="diis">    0.11    0.11</time>
   <time name="orth">    0.01    0.01</time>
   <time name="total">    0.19    0.19</time>
   <energy>
    <i name="e_fr_energy">    -76.50684586 </i>
    <i name="e_wo_entrp">    -76.50684586 </i>
    <i name="e_0_energy">    -76.50684586 </i>
   </energy>
  </scstep>
  <scstep>
   <time name="diag">    0.05    0.05</time>
   <time name="diis">    0.06    0.06</time>
   <time name="orth">    0.01    0.01</time>
   <time name="total">    0.12    0.12</time>
   <energy>
    <i name="alphaZ">     69.25325737 </i>
    <i name="ewald">  -2773.86065785 </i>
    <i name="hartreedc">   -621.28347821 </i>
    <i name="XCdc">    184.66779806 </i>
    <i name="pawpsdc">   7341.27757863 </i>
    <i name="pawaedc">  -7392.07034941 </i>
    <i name="eentropy">      0.00000000 </i>
    <i name="bandstr">   -653.57882018 </i>
    <i name="atom">   3769.08782378 </i>
    <i name="e_fr_energy">    -76.50684782 </i>
    <i name="e_wo_entrp">    -76.50684782 </i>
    <i name="e_0_energy">    -76.50684782 </i>
   </energy>
  </scstep>
  <structure>
   <crystal>
    <varray name="basis" >
     <v>       7.51294740       0.00000000       0.00000000 </v>
     <v>       0.00000000       6.24729882       0.00000000 </v>
     <v>       0.00000000       0.00000000       6.07084805 </v>
    </varray>
    <i name="volume">    284.93906224 </i>
    <varray name="rec_basis" >
     <v>       0.13310355       0.00000000       0.00000000 </v>
     <v>       0.00000000       0.16006918       0.00000000 </v>
     <v>       0.00000000       0.00000000       0.16472163 </v>
    </varray>
   </crystal>
   <varray name="positions" >
    <v>       0.00000000       0.28090638       0.34158985 </v>
    <v>       0.50000000       0.71909362       0.84158985 </v>
    <v>       0.21093367       0.09768305       0.23308560 </v>
    <v>       0.28906633       0.90231695       0.73308560 </v>
    <v>       0.71093367       0.90231695       0.73308560 </v>
    <v>       0.78906633       0.09768305       0.23308560 </v>
    <v>       0.00000000       0.53783780       0.13707917 </v>
    <v>       0.50000000       0.46216220       0.63707917 </v>
    <v>       0.00000000       0.37292708       0.65773549 </v>
    <v>       0.50000000       0.62707292       0.15773549 </v>
    <v>       0.00000000       0.92946179       0.93204423 </v>
    <v>       0.50000000       0.07053821       0.43204423 </v>
    <v>       0.26826154       0.28838043       0.86869663 </v>
    <v>       0.23173846       0.71161957       0.36869663 </v>
    <v>       0.76826154       0.71161957       0.36869663 </v>
    <v>       0.73173846       0.28838043       0.86869663 </v>
   </varray>
  </structure>
  <varray name="forces" >
   <v>       0.00000000      -0.72291595      -0.81655356 </v>
   <v>       0.00000000       0.72291595      -0.81655356 </v>
   <v>       0.11982166       0.08001549      -0.09103386 </v>
   <v>      -0.11982166      -0.08001549      -0.09103386 </v>
   <v>       0.11982166      -0.08001549      -0.09103386 </v>
   <v>      -0.11982166       0.08001549      -0.09103386 </v>
   <v>       0.00000000       0.48688977       0.27869102 </v>
   <v>       0.00000000      -0.48688977       0.27869102 </v>
   <v>       0.00000000      -0.10694878       0.27637533 </v>
   <v>       0.00000000       0.10694878       0.27637533 </v>
   <v>       0.00000000      -0.01067006       0.24076288 </v>
   <v>       0.00000000       0.01067006       0.24076288 </v>
   <v>       0.04580130      -0.05795088       0.10139603 </v>
   <v>      -0.04580130       0.05795088       0.10139603 </v>
   <v>       0.04580130       0.05795088       0.10139603 </v>
   <v>      -0.04580130      -0.05795088       0.10139603 </v>
  </varray>
  <varray name="stress" >
   <v>      -9.00944417       0.00000000       0.00000000 </v>
   <v>       0.00000000     -12.12636389       0.00000000 </v>
   <v>       0.00000000       0.00000000     -13.61115086 </v>
  </varray>
  <energy>
   <i name="e_fr_energy">    -76.50684782 </i>
   <i name="e_wo_entrp">    -76.50684782 </i>
   <i name="e_0_energy">      0.00000000 </i>
  </energy>
  <time name="totalsc">    1.14    1.16</time>
 </calculation>
 <calculation>
  <scstep>
   <time name="dav">    0.17    0.17</time>
   <time name="total">    0.19    0.19</time>
   <energy>
    <i name="alphaZ">     69.81900203 </i>
    <i name="ewald">  -2783.85047274 </i>
    <i name="hartreedc">   -621.12815570 </i>
    <i name="XCdc">    185.17122041 </i>
    <i name="pawpsdc">   7340.61498284 </i>
    <i name="pawaedc">  -7391.40657738 </i>
    <i name="eentropy">      0.00000000 </i>
    <i name="bandstr">   -644.89410194 </i>
    <i name="atom">   3769.08782378 </i>
    <i name="e_fr_energy">    -76.58627869 </i>
    <i name="e_wo_entrp">    -76.58627869 </i>
    <i name="e_0_energy">    -76.58627869 </i>
   </energy>
  </scstep>
  <scstep>
   <time name="diag">    0.05    0.05</time>
   <time name="diis">    0.10    0.10</time>
   <time name="orth">    0.01    0.01</time>
   <time name="total">    0.18    0.18</time>
   <energy>
    <i name="e_fr_energy">    -76.59973944 </i>
    <i name="e_wo_entrp">    -76.59973944 </i>
    <i name="e_0_energy">    -76.59973944 </i>
   </energy>
  </scstep>
  <scstep>
   <time name="diag">    0.05    0.05</time>
   <time name="diis">    0.12    0.12</time>
   <time name="orth">    0.01    0.01</time>
   <time name="total">    0.20    0.20</time>
   <energy>
    <i name="e_fr_energy">    -76.59622369 </i>
    <i name="e_wo_entrp">    -76.59622369 </i>
    <i name="e_0_energy">    -76.59622369 </i>
   </energy>
  </scstep>
  <scstep>
   <time name="diag">    0.05    0.05</time>
   <time name="diis">    0.12    0.12</time>
   <time name="orth">    0.01    0.01</time>
   <time name="total">    0.20    0.20</time>
   <energy>
    <i name="e_fr_energy">    -76.59527287 </i>
    <i name="e_wo_entrp">    -76.59527287 </i>
    <i name="e_0_energy">    -76.59527287 </i>
   </energy>
  </scstep>
  <scstep>
   <time name="diag">    0.05    0.05</time>
   <time name="diis">    0.12    0.12</time>
   <time name="orth">    0.01    0.01</time>
   <time name="total">    0.20    0.20</time>
   <energy>
    <i name="e_fr_energy">    -76.59544774 </i>
    <i name="e_wo_entrp">    -76.59544774 </i>
    <i name="e_0_energy">    -76.59544774 </i>
   </energy>
  </scstep>
  <scstep>
   <time name="diag">    0.05    0.05</time>
   <time name="diis">    0.12    0.12</time>
   <time name="orth">    0.01    0.01</time>
   <time name="total">    0.20    0.20</time>
   <energy>
    <i name="e_fr_energy">    -76.59555692 </i>
    <i name="e_wo_entrp">    -76.59555692 </i>
    <i name="e_0_energy">    -76.59555692 </i>
   </energy>
  </scstep>
  <scstep>
   <time name="diag">    0.05    0.05</time>
   <time name="diis">    0.12    0.12</time>
   <time name="orth">    0.01    0.01</time>
   <time name="total">    0.20    0.20</time>
   <energy>
    <i name="e_fr_energy">    -76.59560370 </i>
    <i name="e_wo_entrp">    -76.59560370 </i>
    <i name="e_0_energy">    -76.59560370 </i>
   </energy>
  </scstep>
  <scstep>
   <time name="diag">    0.05    0.05</time>
   <time name="diis">    0.08    0.08</time>
   <time name="orth">    0.01    0.01</time>
   <time name="total">    0.14    0.14</time>
   <energy>
    <i name="alphaZ">     69.81900203 </i>
    <i name="ewald">  -2783.85047274 </i>
    <i name="hartreedc">   -616.38907488 </i>
    <i name="XCdc">    184.81453092 </i>
    <i name="pawpsdc">   7360.41202354 </i>
    <i name="pawaedc">  -7411.14283865 </i>
[...]
       <r>   -9.0904    1.0000 </r>
       <r>   -4.9470    1.0000 </r>
       <r>   -4.7472    1.0000 </r>
       <r>   -2.2362    1.0000 </r>
       <r>   -2.1916    1.0000 </r>
       <r>   -2.0827    1.0000 </r>
       <r>   -2.0216    1.0000 </r>
       <r>   -1.7730    1.0000 </r>
       <r>   -1.6333    1.0000 </r>
       <r>   -0.0327    1.0000 </r>
       <r>    0.2074    1.0000 </r>
       <r>    0.2841    1.0000 </r>
       <r>    0.4548    1.0000 </r>
       <r>    0.6148    1.0000 </r>
       <r>    0.7188    1.0000 </r>
       <r>    0.9371    1.0000 </r>
       <r>    1.0215    1.0000 </r>
       <r>    1.1568    1.0000 </r>
       <r>    1.2814    1.0000 </r>
       <r>    1.6533    1.0000 </r>
       <r>    2.0841    1.0000 </r>
       <r>    2.2376    1.0000 </r>
       <r>    2.3298    1.0000 </r>
       <r>    2.4687    1.0000 </r>
       <r>    2.5277    1.0000 </r>
       <r>    5.5527    0.0000 </r>
       <r>    5.9030    0.0000 </r>
       <r>    6.5245    0.0000 </r>
       <r>    6.7795    0.0000 </r>
       <r>    6.8111    0.0000 </r>
       <r>    6.9970    0.0000 </r>
       <r>    7.1277    0.0000 </r>
       <r>    7.2423    0.0000 </r>
       <r>    8.5055    0.0000 </r>
       <r>    8.6815    0.0000 </r>
      </set>
      <set comment="kpoint 8">
       <r>  -41.3912    1.0000 </r>
       <r>  -41.3911    1.0000 </r>
       <r>  -40.6814    1.0000 </r>
       <r>  -40.6814    1.0000 </r>
       <r>  -40.6808    1.0000 </r>
       <r>  -40.6808    1.0000 </r>
       <r>  -12.2497    1.0000 </r>
       <r>  -12.2295    1.0000 </r>
       <r>   -9.4509    1.0000 </r>
       <r>   -9.4346    1.0000 </r>
       <r>   -9.3184    1.0000 </r>
       <r>   -9.2837    1.0000 </r>
       <r>   -9.1128    1.0000 </r>
       <r>   -9.0885    1.0000 </r>
       <r>   -4.8651    1.0000 </r>
       <r>   -4.7815    1.0000 </r>
       <r>   -2.2344    1.0000 </r>
       <r>   -2.1989    1.0000 </r>
       <r>   -2.0155    1.0000 </r>
       <r>   -1.9367    1.0000 </r>
       <r>   -1.7724    1.0000 </r>
       <r>   -1.7010    1.0000 </r>
       <r>   -0.1150    1.0000 </r>
       <r>    0.0072    1.0000 </r>
       <r>    0.2541    1.0000 </r>
       <r>    0.3425    1.0000 </r>
       <r>    0.5781    1.0000 </r>
       <r>    0.6121    1.0000 </r>
       <r>    1.0177    1.0000 </r>
       <r>    1.0980    1.0000 </r>
       <r>    1.3170    1.0000 </r>
       <r>    1.3847    1.0000 </r>
       <r>    1.6692    1.0000 </r>
       <r>    1.8977    1.0000 </r>
       <r>    2.2373    1.0000 </r>
       <r>    2.2696    1.0000 </r>
       <r>    2.5008    1.0000 </r>
       <r>    2.5924    1.0000 </r>
       <r>    5.7175    0.0000 </r>
       <r>    5.8828    0.0000 </r>
       <r>    6.6462    0.0000 </r>
       <r>    6.6657    0.0000 </r>
       <r>    7.0107    0.0000 </r>
       <r>    7.1354    0.0000 </r>
       <r>    7.3032    0.0000 </r>
       <r>    7.3998    0.0000 </r>
       <r>    8.5409    0.0000 </r>
       <r>    8.6923    0.0000 </r>
      </set>
     </set>
    </set>
   </array>
  </eigenvalues>
  <separator name="orbital magnetization" >
   <v name="MAGDIPOLOUT">      0.00000000      0.00000000      0.00000000</v>
  </separator>
  <dos>
   <i name="efermi">      2.80450432 </i>
   <total>
    <array>
     <dimension dim="1">gridpoints</dimension>
     <dimension dim="2">spin</dimension>
     <field>energy</field>
     <field>total</field>
     <field>integrated</field>
     <set>
      <set comment="spin 1">
       <r>   -43.8959     0.0000     0.0000 </r>
       <r>   -43.7122     0.0000     0.0000 </r>
       <r>   -43.5285     0.0000     0.0000 </r>
       <r>   -43.3448     0.0000     0.0000 </r>
       <r>   -43.1611     0.0000     0.0000 </r>
       <r>   -42.9775     0.0000     0.0000 </r>
       <r>   -42.7938     0.0000     0.0000 </r>
       <r>   -42.6101     0.0000     0.0000 </r>
       <r>   -42.4264     0.0000     0.0000 </r>
       <r>   -42.2428     0.0000     0.0000 </r>
       <r>   -42.0591     0.0000     0.0000 </r>
       <r>   -41.8754     0.0000     0.0000 </r>
       <r>   -41.6917     0.0000     0.0000 </r>
       <r>   -41.5080     0.0000     0.0000 </r>
       <r>   -41.3244     0.0000     4.0000 </r>
       <r>   -41.1407     0.0000     4.0000 </r>
       <r>   -40.9570     0.0000     4.0000 </r>
       <r>   -40.7733     0.0000     4.0000 </r>
       <r>   -40.5896     0.0000    12.0000 </r>
       <r>   -40.4060     0.0000    12.0000 </r>
       <r>   -40.2223     0.0000    12.0000 </r>
       <r>   -40.0386     0.0000    12.0000 </r>
       <r>   -39.8549     0.0000    12.0000 </r>
       <r>   -39.6712     0.0000    12.0000 </r>
       <r>   -39.4876     0.0000    12.0000 </r>
       <r>   -39.3039     0.0000    12.0000 </r>
       <r>   -39.1202     0.0000    12.0000 </r>
       <r>   -38.9365     0.0000    12.0000 </r>
       <r>   -38.7529     0.0000    12.0000 </r>
       <r>   -38.5692     0.0000    12.0000 </r>
       <r>   -38.3855     0.0000    12.0000 </r>
       <r>   -38.2018     0.0000    12.0000 </r>
       <r>   -38.0181     0.0000    12.0000 </r>
       <r>   -37.8345     0.0000    12.0000 </r>
       <r>   -37.6508     0.0000    12.0000 </r>
       <r>   -37.4671     0.0000    12.0000 </r>
       <r>   -37.2834     0.0000    12.0000 </r>
       <r>   -37.0997     0.0000    12.0000 </r>
       <r>   -36.9161     0.0000    12.0000 </r>
       <r>   -36.7324     0.0000    12.0000 </r>
       <r>   -36.5487     0.0000    12.0000 </r>
       <r>   -36.3650     0.0000    12.0000 </r>
       <r>   -36.1813     0.0000    12.0000 </r>
       <r>   -35.9977     0.0000    12.0000 </r>
       <r>   -35.8140     0.0000    12.0000 </r>
       <r>   -35.6303     0.0000    12.0000 </r>
       <r>   -35.4466     0.0000    12.0000 </r>
       <r>   -35.2630     0.0000    12.0000 </r>
       <r>   -35.0793     0.0000    12.0000 </r>
       <r>   -34.8956     0.0000    12.0000 </r>
       <r>   -34.7119     0.0000    12.0000 </r>
       <r>   -34.5282     0.0000    12.0000 </r>
       <r>   -34.3446     0.0000    12.0000 </r>
       <r>   -34.1609     0.0000    12.0000 </r>
       <r>   -33.9772     0.0000    12.0000 </r>
       <r>   -33.7935     0.0000    12.0000 </r>
       <r>   -33.6098     0.0000    12.0000 </r>
       <r>   -33.4262     0.0000    12.0000 </r>
       <r>   -33.2425     0.0000    12.0000 </r>
       <r>   -33.0588     0.0000    12.0000 </r>
       <r>   -32.8751     0.0000    12.0000 </r>
       <r>   -32.6914     0.0000    12.0000 </r>
       <r>   -32.5078     0.0000    12.0000 </r>
       <r>   -32.3241     0.0000    12.0000 </r>
       <r>   -32.1404     0.0000    12.0000 </r>
       <r>   -31.9567     0.0000    12.0000 </r>
       <r>   -31.7731     0.0000    12.0000 </r>
       <r>   -31.5894     0.0000    12.0000 </r>
       <r>   -31.4057     0.0000    12.0000 </r>
       <r>   -31.2220     0.0000    12.0000 </r>
       <r>   -31.0383     0.0000    12.0000 </r>
       <r>   -30.8547     0.0000    12.0000 </r>
       <r>   -30.6710     0.0000    12.0000 </r>
       <r>   -30.4873     0.0000    12.0000 </r>
       <r>   -30.3036     0.0000    12.0000 </r>
       <r>   -30.1199     0.0000    12.0000 </r>
       <r>   -29.9363     0.0000    12.0000 </r>
       <r>   -29.7526     0.0000    12.0000 </r>
       <r>   -29.5689     0.0000    12.0000 </r>
       <r>   -29.3852     0.0000    12.0000 </r>
       <r>   -29.2015     0.0000    12.0000 </r>
       <r>   -29.0179     0.0000    12.0000 </r>
       <r>   -28.8342     0.0000    12.0000 </r>
       <r>   -28.6505     0.0000    12.0000 </r>
       <r>   -28.4668     0.0000    12.0000 </r>
       <r>   -28.2832     0.0000    12.0000 </r>
       <r>   -28.0995     0.0000    12.0000 </r>
       <r>   -27.9158     0.0000    12.0000 </r>
       <r>   -27.7321     0.0000    12.0000 </r>
       <r>   -27.5484     0.0000    12.0000 </r>
       <r>   -27.3648     0.0000    12.0000 </r>
       <r>   -27.1811     0.0000    12.0000 </r>
       <r>   -26.9974     0.0000    12.0000 </r>
       <r>   -26.8137     0.0000    12.0000 </r>
       <r>   -26.6300     0.0000    12.0000 </r>
       <r>   -26.4464     0.0000    12.0000 </r>
       <r>   -26.2627     0.0000    12.0000 </r>
       <r>   -26.0790     0.0000    12.0000 </r>
       <r>   -25.8953     0.0000    12.0000 </r>
       <r>   -25.7116     0.0000    12.0000 </r>
       <r>   -25.5280     0.0000    12.0000 </r>
       <r>   -25.3443     0.0000    12.0000 </r>
       <r>   -25.1606     0.0000    12.0000 </r>
       <r>   -24.9769     0.0000    12.0000 </r>
       <r>   -24.7933     0.0000    12.0000 </r>
       <r>   -24.6096     0.0000    12.0000 </r>
       <r>   -24.4259     0.0000    12.0000 </r>
       <r>   -24.2422     0.0000    12.0000 </r>
       <r>   -24.0585     0.0000    12.0000 </r>
       <r>   -23.8749     0.0000    12.0000 </r>
       <r>   -23.6912     0.0000    12.0000 </r>
       <r>   -23.5075     0.0000    12.0000 </r>
       <r>   -23.3238     0.0000    12.0000 </r>
       <r>   -23.1401     0.0000    12.0000 </r>
       <r>   -22.9565     0.0000    12.0000 </r>
       <r>   -22.7728     0.0000    12.0000 </r>
       <r>   -22.5891     0.0000    12.0000 </r>
       <r>   -22.4054     0.0000    12.0000 </r>
       <r>   -22.2217     0.0000    12.0000 </r>
       <r>   -22.0381     0.0000    12.0000 </r>
       <r>   -21.8544     0.0000    12.0000 </r>
       <r>   -21.6707     0.0000    12.0000 </r>
       <r>   -21.4870     0.0000    12.0000 </r>
       <r>   -21.3034     0.0000    12.0000 </r>
       <r>   -21.1197     0.0000    12.0000 </r>
       <r>   -20.9360     0.0000    12.0000 </r>
       <r>   -20.7523     0.0000    12.0000 </r>
       <r>   -20.5686     0.0000    12.0000 </r>
       <r>   -20.3850     0.0000    12.0000 </r>
       <r>   -20.2013     0.0000    12.0000 </r>
       <r>   -20.0176     0.0000    12.0000 </r>
       <r>   -19.8339     0.0000    12.0000 </r>
       <r>   -19.6502     0.0000    12.0000 </r>
       <r>   -19.4666     0.0000    12.0000 </r>
       <r>   -19.2829     0.0000    12.0000 </r>
       <r>   -19.0992     0.0000    12.0000 </r>
       <r>   -18.9155     0.0000    12.0000 </r>
       <r>   -18.7319     0.0000    12.0000 </r>
       <r>   -18.5482     0.0000    12.0000 </r>
       <r>   -18.3645     0.0000    12.0000 </r>
       <r>   -18.1808     0.0000    12.0000 </r>
       <r>   -17.9971     0.0000    12.0000 </r>
       <r>   -17.8135     0.0000    12.0000 </r>
       <r>   -17.6298     0.0000    12.0000 </r>
       <r>   -17.4461     0.0000    12.0000 </r>
       <r>   -17.2624     0.0000    12.0000 </r>
       <r>   -17.0787     0.0000    12.0000 </r>
       <r>   -16.8951     0.0000    12.0000 </r>
       <r>   -16.7114     0.0000    12.0000 </r>
       <r>   -16.5277     0.0000    12.0000 </r>
       <r>   -16.3440     0.0000    12.0000 </r>
       <r>   -16.1603     0.0000    12.0000 </r>
       <r>   -15.9767     0.0000    12.0000 </r>
       <r>   -15.7930     0.0000    12.0000 </r>
       <r>   -15.6093     0.0000    12.0000 </r>
       <r>   -15.4256     0.0000    12.0000 </r>
       <r>   -15.2420     0.0000    12.0000 </r>
       <r>   -15.0583     0.0000    12.0000 </r>
       <r>   -14.8746     0.0000    12.0000 </r>
       <r>   -14.6909     0.0000    12.0000 </r>
       <r>   -14.5072     0.0000    12.0000 </r>
       <r>   -14.3236     0.0000    12.0000 </r>
       <r>   -14.1399     0.0000    12.0000 </r>
       <r>   -13.9562     0.0000    12.0000 </r>
       <r>   -13.7725     0.0000    12.0000 </r>
       <r>   -13.5888     0.0000    12.0000 </r>
       <r>   -13.4052     0.0000    12.0000 </r>
       <r>   -13.2215     0.0000    12.0000 </r>
       <r>   -13.0378     0.0000    12.0000 </r>
       <r>   -12.8541     0.0000    12.0000 </r>
       <r>   -12.6704     0.0000    12.0000 </r>
       <r>   -12.4868     0.0000    12.0000 </r>
       <r>   -12.3031    17.2330    13.1322 </r>
       <r>   -12.1194     0.0000    16.0000 </r>
       <r>   -11.9357     0.0000    16.0000 </r>
       <r>   -11.7521     0.0000    16.0000 </r>
       <r>   -11.5684     0.0000    16.0000 </r>
       <r>   -11.3847     0.0000    16.0000 </r>
       <r>   -11.2010     0.0000    16.0000 </r>
       <r>   -11.0173     0.0000    16.0000 </r>
       <r>   -10.8337     0.0000    16.0000 </r>
       <r>   -10.6500     0.0000    16.0000 </r>
       <r>   -10.4663     0.0000    16.0000 </r>
       <r>   -10.2826     0.0000    16.0000 </r>
       <r>   -10.0989     0.0000    16.0000 </r>
       <r>    -9.9153     0.0000    16.0000 </r>
       <r>    -9.7316     0.0000    16.0000 </r>
       <r>    -9.5479     0.0000    16.0000 </r>
       <r>    -9.3642     8.9961    19.6145 </r>
       <r>    -9.1805    19.1691    23.0369 </r>
       <r>    -8.9969    17.7168    26.9812 </r>
       <r>    -8.8132     0.0000    28.0000 </r>
       <r>    -8.6295     0.0000    28.0000 </r>
       <r>    -8.4458     0.0000    28.0000 </r>
       <r>    -8.2622     0.0000    28.0000 </r>
       <r>    -8.0785     0.0000    28.0000 </r>
       <r>    -7.8948     0.0000    28.0000 </r>
       <r>    -7.7111     0.0000    28.0000 </r>
       <r>    -7.5274     0.0000    28.0000 </r>
       <r>    -7.3438     0.0000    28.0000 </r>
       <r>    -7.1601     0.0000    28.0000 </r>
       <r>    -6.9764     0.0000    28.0000 </r>
       <r>    -6.7927     0.0000    28.0000 </r>
       <r>    -6.6090     0.0000    28.0000 </r>
       <r>    -6.4254     0.0000    28.0000 </r>
       <r>    -6.2417     0.0000    28.0000 </r>
       <r>    -6.0580     0.0000    28.0000 </r>
       <r>    -5.8743     0.0000    28.0000 </r>
       <r>    -5.6906     0.0000    28.0000 </r>
       <r>    -5.5070     0.0000    28.0000 </r>
       <r>    -5.3233     1.6867    28.1361 </r>
       <r>    -5.1396     4.7656    28.7787 </r>
       <r>    -4.9559     7.7773    29.8024 </r>
       <r>    -4.7723     9.7351    31.6566 </r>
       <r>    -4.5886     0.0000    32.0000 </r>
       <r>    -4.4049     0.0000    32.0000 </r>
       <r>    -4.2212     0.0000    32.0000 </r>
       <r>    -4.0375     0.0000    32.0000 </r>
       <r>    -3.8539     0.0000    32.0000 </r>
       <r>    -3.6702     0.0000    32.0000 </r>
       <r>    -3.4865     0.0000    32.0000 </r>
       <r>    -3.3028     0.0000    32.0000 </r>
       <r>    -3.1191     0.0000    32.0000 </r>
       <r>    -2.9355     0.0000    32.0000 </r>
       <r>    -2.7518     0.0000    32.0000 </r>
       <r>    -2.5681     0.0000    32.0000 </r>
       <r>    -2.3844     9.0350    33.1513 </r>
       <r>    -2.2007    18.4605    35.9279 </r>
       <r>    -2.0171    18.1563    39.1189 </r>
       <r>    -1.8334    16.8757    41.1626 </r>
       <r>    -1.6497     2.8664    43.9292 </r>
       <r>    -1.4660     0.0000    44.0000 </r>
       <r>    -1.2824     0.0000    44.0000 </r>
       <r>    -1.0987     0.0000    44.0000 </r>
       <r>    -0.9150     0.0000    44.0000 </r>
       <r>    -0.7313     0.0000    44.0000 </r>
       <r>    -0.5476     0.0000    44.0000 </r>
       <r>    -0.3640     0.0000    44.0000 </r>
       <r>    -0.1803     0.0000    44.0000 </r>
       <r>     0.0034    13.4923    45.9073 </r>
       <r>     0.1871     7.1943    48.0919 </r>
       <r>     0.3708    13.8916    50.0841 </r>
       <r>     0.5544     9.1470    52.2797 </r>
       <r>     0.7381     8.9516    54.8170 </r>
       <r>     0.9218     4.0493    55.9485 </r>
       <r>     1.1055    12.5616    58.1059 </r>
       <r>     1.2892    24.1069    60.1615 </r>
       <r>     1.4728     7.6503    61.2838 </r>
       <r>     1.6565    10.7456    63.8974 </r>
       <r>     1.8402    12.9100    66.0337 </r>
       <r>     2.0239     7.9124    68.1747 </r>
       <r>     2.2075    11.1066    70.3353 </r>
       <r>     2.3912     0.0000    72.0000 </r>
       <r>     2.5749    10.6371    74.4466 </r>
       <r>     2.7586     0.0000    76.0000 </r>
       <r>     2.9423     0.0000    76.0000 </r>
       <r>     3.1259     0.0000    76.0000 </r>
       <r>     3.3096     0.0000    76.0000 </r>
       <r>     3.4933     0.0000    76.0000 </r>
       <r>     3.6770     0.0000    76.0000 </r>
       <r>     3.8607     0.0000    76.0000 </r>
       <r>     4.0443     0.0000    76.0000 </r>
       <r>     4.2280     0.0000    76.0000 </r>
       <r>     4.4117     0.0000    76.0000 </r>
       <r>     4.5954     0.0000    76.0000 </r>
       <r>     4.7791     0.0000    76.0000 </r>
       <r>     4.9627     0.0000    76.0000 </r>
       <r>     5.1464     0.0000    76.0000 </r>
       <r>     5.3301     0.0000    76.0000 </r>
       <r>     5.5138     2.2215    76.1879 </r>
       <r>     5.6974     4.8612    77.0668 </r>
       <r>     5.8811     6.6776    78.2448 </r>
       <r>     6.0648     4.0171    79.2812 </r>
       <r>     6.2485     0.0000    80.0000 </r>
       <r>     6.4322     0.0000    80.0000 </r>
       <r>     6.6158    15.4429    81.3880 </r>
       <r>     6.7995    10.9912    83.7985 </r>
       <r>     6.9832     6.1106    84.7360 </r>
       <r>     7.1669    13.5254    87.1244 </r>
       <r>     7.3506     9.7571    89.1006 </r>
       <r>     7.5342    21.2150    91.2419 </r>
       <r>     7.7179     0.0000    92.0000 </r>
       <r>     7.9016     0.0000    92.0000 </r>
       <r>     8.0853     0.0000    92.0000 </r>
       <r>     8.2690     1.9846    92.2170 </r>
       <r>     8.4526     5.7227    92.9409 </r>
       <r>     8.6363    17.7692    94.7597 </r>
       <r>     8.8200     0.0000    96.0000 </r>
       <r>     9.0037     0.0000    96.0000 </r>
       <r>     9.1873     0.0000    96.0000 </r>
       <r>     9.3710     0.0000    96.0000 </r>
       <r>     9.5547     0.0000    96.0000 </r>
       <r>     9.7384     0.0000    96.0000 </r>
       <r>     9.9221     0.0000    96.0000 </r>
       <r>    10.1057     0.0000    96.0000 </r>
       <r>    10.2894     0.0000    96.0000 </r>
       <r>    10.4731     0.0000    96.0000 </r>
       <r>    10.6568     0.0000    96.0000 </r>
       <r>    10.8405     0.0000    96.0000 </r>
       <r>    11.0241     0.0000    96.0000 </r>
       <r>    11.2078     0.0000    96.0000 </r>
      </set>
     </set>
    </array>
   </total>
  </dos>
 </calculation>
 <structure name="finalpos" >
  <crystal>
   <varray name="basis" >
    <v>       7.77766249       0.00000000       0.00000000 </v>
    <v>       0.00000000       6.13263588       0.00000000 </v>
    <v>       0.00000000       0.00000000       5.92566467 </v>
   </varray>
   <i name="volume">    282.63981780 </i>
   <varray name="rec_basis" >
    <v>       0.12857333       0.00000000       0.00000000 </v>
    <v>       0.00000000       0.16306202       0.00000000 </v>
    <v>       0.00000000       0.00000000       0.16875744 </v>
   </varray>
  </crystal>
  <varray name="positions" >
   <v>       0.00000000       0.27015931       0.33474091 </v>
   <v>       0.50000000       0.72984069       0.83474091 </v>
   <v>       0.20855882       0.10357885       0.21578751 </v>
   <v>       0.29144118       0.89642115       0.71578751 </v>
   <v>       0.70855882       0.89642115       0.71578751 </v>
   <v>       0.79144118       0.10357885       0.21578751 </v>
   <v>       0.00000000       0.56730545       0.18375396 </v>
   <v>       0.50000000       0.43269455       0.68375396 </v>
   <v>       0.00000000       0.30789114       0.67547197 </v>
   <v>       0.50000000       0.69210886       0.17547197 </v>
   <v>       0.00000000       0.93429460       0.91999347 </v>
   <v>       0.50000000       0.06570540       0.41999347 </v>
   <v>       0.26722407       0.26971683       0.86323893 </v>
   <v>       0.23277593       0.73028317       0.36323893 </v>
   <v>       0.76722407       0.73028317       0.36323893 </v>
   <v>       0.73277593       0.26971683       0.86323893 </v>
  </varray>
 </structure>
</modeling>
