unknown system                          
           1
     7.771431    0.000000    0.000000
     0.000000    6.132656    0.000000
     0.000000    0.000000    5.936612
   P    S    Li
   2   8   6
Direct configuration=     1
   0.00000000  0.27249789  0.33460600
   0.50000000  0.72750211  0.83460600
   0.20890177  0.08297993  0.26126524
   0.29109823  0.91702007  0.76126524
   0.70890177  0.91702007  0.76126524
   0.79109823  0.08297993  0.26126524
   0.00000000  0.52590243  0.11481892
   0.50000000  0.47409757  0.61481892
   0.00000000  0.38637700  0.65624582
   0.50000000  0.61362300  0.15624582
   0.00000000  0.93368643  0.91990922
   0.50000000  0.06631357  0.41990922
   0.26621287  0.26665959  0.86195138
   0.23378713  0.73334041  0.36195138
   0.76621287  0.73334041  0.36195138
   0.73378713  0.26665959  0.86195138
unknown system                          
           1
     7.663663    0.000000    0.000000
     0.000000    6.165584    0.000000
     0.000000    0.000000    5.995033
   P    S    Li
   2   8   6
Direct configuration=     2
   0.00000000  0.27197349  0.33557301
   0.50000000  0.72802651  0.83557301
   0.20747390  0.08868108  0.25414611
   0.29252610  0.91131892  0.75414611
   0.70747390  0.91131892  0.75414611
   0.79252610  0.08868108  0.25414611
   0.00000000  0.52893153  0.12015713
   0.50000000  0.47106847  0.62015713
   0.00000000  0.38329067  0.65744541
   0.50000000  0.61670933  0.15744541
   0.00000000  0.93262586  0.92291813
   0.50000000  0.06737414  0.42291813
   0.26666653  0.27272345  0.86381365
   0.23333347  0.72727655  0.36381365
   0.76666653  0.72727655  0.36381365
   0.73333347  0.27272345  0.86381365
unknown system                          
           1
     7.553567    0.000000    0.000000
     0.000000    6.199224    0.000000
     0.000000    0.000000    6.054716
   P    S    Li
   2   8   6
Direct configuration=     3
   0.00000000  0.27144063  0.33655127
   0.50000000  0.72855937  0.83655127
   0.20599467  0.09447423  0.24694412
   0.29400533  0.90552577  0.74694412
   0.70599467  0.90552577  0.74694412
   0.79400533  0.09447423  0.24694412
   0.00000000  0.53200951  0.12555748
   0.50000000  0.46799049  0.62555748
   0.00000000  0.38015453  0.65865898
   0.50000000  0.61984547  0.15865898
   0.00000000  0.93154818  0.92596207
   0.50000000  0.06845182  0.42596207
   0.26713651  0.27888516  0.86569759
   0.23286349  0.72111484  0.36569759
   0.76713651  0.72111484  0.36569759
   0.73286349  0.27888516  0.86569759
unknown system                          
           1
     7.537578    0.000000    0.000000
     0.000000    6.218147    0.000000
     0.000000    0.000000    6.061066
   P    S    Li
   2   8   6
Direct configuration=     4
   0.00000000  0.27517442  0.33853604
   0.50000000  0.72482558  0.83853604
   0.20793599  0.09573995  0.24148506
   0.29206401  0.90426005  0.74148506
   0.70793599  0.90426005  0.74148506
   0.79206401  0.09573995  0.24148506
   0.00000000  0.53430849  0.13009603
   0.50000000  0.46569151  0.63009603
   0.00000000  0.37730364  0.65829520
   0.50000000  0.62269636  0.15829520
   0.00000000  0.93072520  0.92835791
   0.50000000  0.06927480  0.42835791
   0.26757871  0.28263060  0.86687895
   0.23242129  0.71736940  0.36687895
   0.76757871  0.71736940  0.36687895
   0.73242129  0.28263060  0.86687895
unknown system                          
           1
     7.515225    0.000000    0.000000
     0.000000    6.244603    0.000000
     0.000000    0.000000    6.069943
   P    S    Li
   2   8   6
Direct configuration=     5
   0.00000000  0.28037838  0.34130783
   0.50000000  0.71962162  0.84130783
   0.21065572  0.09750406  0.23386127
   0.28934428  0.90249594  0.73386127
   0.71065572  0.90249594  0.73386127
   0.78934428  0.09750406  0.23386127
   0.00000000  0.53751270  0.13643429
   0.50000000  0.46248730  0.63643429
   0.00000000  0.37333023  0.65778718
   0.50000000  0.62666977  0.15778718
   0.00000000  0.92957817  0.93170380
   0.50000000  0.07042183  0.43170380
   0.26819823  0.28785078  0.86852877
   0.23180177  0.71214922  0.36852877
   0.76819823  0.71214922  0.36852877
   0.73180177  0.28785078  0.86852877
unknown system                          
           1
     7.512947    0.000000    0.000000
     0.000000    6.247299    0.000000
     0.000000    0.000000    6.070848
   P    S    Li
   2   8   6
Direct configuration=     6
   0.00000000  0.28090638  0.34158985
   0.50000000  0.71909362  0.84158985
   0.21093367  0.09768305  0.23308560
   0.28906633  0.90231695  0.73308560
   0.71093367  0.90231695  0.73308560
   0.78906633  0.09768305  0.23308560
   0.00000000  0.53783780  0.13707917
   0.50000000  0.46216220  0.63707917
   0.00000000  0.37292708  0.65773549
   0.50000000  0.62707292  0.15773549
   0.00000000  0.92946179  0.93204423
   0.50000000  0.07053821  0.43204423
   0.26826154  0.28838043  0.86869663
   0.23173846  0.71161957  0.36869663
   0.76826154  0.71161957  0.36869663
   0.73173846  0.28838043  0.86869663
unknown system                          
           1
     7.488054    0.000000    0.000000
     0.000000    6.236348    0.000000
     0.000000    0.000000    6.052283
   P    S    Li
   2   8   6
Direct configuration=     7
   0.00000000  0.27989894  0.33935144
   0.50000000  0.72010106  0.83935144
   0.21220199  0.09855875  0.23023754
   0.28779801  0.90144125  0.73023754
   0.71220199  0.90144125  0.73023754
   0.78779801  0.09855875  0.23023754
   0.00000000  0.54070728  0.14022922
   0.50000000  0.45929272  0.64022922
   0.00000000  0.37122905  0.65863402
   0.50000000  0.62877095  0.15863402
   0.00000000  0.92904726  0.93406794
   0.50000000  0.07095274  0.43406794
   0.26860807  0.28986816  0.86962775
   0.23139193  0.71013184  0.36962775
   0.76860807  0.71013184  0.36962775
   0.73139193  0.28986816  0.86962775
unknown system                          
           1
     7.413372    0.000000    0.000000
     0.000000    6.203497    0.000000
     0.000000    0.000000    5.996589
   P    S    Li
   2   8   6
Direct configuration=     8
   0.00000000  0.27687128  0.33261562
   0.50000000  0.72312872  0.83261562
   0.21601962  0.10119046  0.22166716
   0.28398038  0.89880954  0.72166716
   0.71601962  0.89880954  0.72166716
   0.78398038  0.10119046  0.22166716
   0.00000000  0.54933081  0.14970834
   0.50000000  0.45066919  0.64970834
   0.00000000  0.36612603  0.66133785
   0.50000000  0.63387397  0.16133785
   0.00000000  0.92780148  0.94015768
   0.50000000  0.07219852  0.44015768
   0.26965113  0.29433919  0.87242969
   0.23034887  0.70566081  0.37242969
   0.76965113  0.70566081  0.37242969
   0.73034887  0.29433919  0.87242969
unknown system                          
           1
     7.404916    0.000000    0.000000
     0.000000    6.199777    0.000000
     0.000000    0.000000    5.990283
   P    S    Li
   2   8   6
Direct configuration=     9
   0.00000000  0.27652666  0.33184586
   0.50000000  0.72347334  0.83184586
   0.21645623  0.10149002  0.22068776
   0.28354377  0.89850998  0.72068776
   0.71645623  0.89850998  0.72068776
   0.78354377  0.10149002  0.22068776
   0.00000000  0.55031239  0.15079160
   0.50000000  0.44968761  0.65079160
   0.00000000  0.36554518  0.66164684
   0.50000000  0.63445482  0.16164684
   0.00000000  0.92765968  0.94085360
   0.50000000  0.07234032  0.44085360
   0.26977042  0.29484811  0.87274989
   0.23022958  0.70515189  0.37274989
   0.76977042  0.70515189  0.37274989
   0.73022958  0.29484811  0.87274989
unknown system                          
           1
     7.411099    0.000000    0.000000
     0.000000    6.194631    0.000000
     0.000000    0.000000    5.966678
   P    S    Li
   2   8   6
Direct configuration=    10
   0.00000000  0.27431254  0.33239540
   0.50000000  0.72568746  0.83239540
   0.21720516  0.10130969  0.21960867
   0.28279484  0.89869031  0.71960867
   0.71720516  0.89869031  0.71960867
   0.78279484  0.10130969  0.21960867
   0.00000000  0.55431815  0.15058844
   0.50000000  0.44568185  0.65058844
   0.00000000  0.36269820  0.65996625
   0.50000000  0.63730180  0.15996625
   0.00000000  0.92763831  0.94242968
   0.50000000  0.07236169  0.44242968
   0.26957613  0.29482809  0.87370805
   0.23042387  0.70517191  0.37370805
   0.76957613  0.70517191  0.37370805
   0.73042387  0.29482809  0.87370805
unknown system                          
           1
     7.411670    0.000000    0.000000
     0.000000    6.194156    0.000000
     0.000000    0.000000    5.964499
   P    S    Li
   2   8   6
Direct configuration=    11
   0.00000000  0.27410800  0.33244632
   0.50000000  0.72589200  0.83244632
   0.21727423  0.10129303  0.21950867
   0.28272577  0.89870697  0.71950867
   0.71727423  0.89870697  0.71950867
   0.78272577  0.10129303  0.21950867
   0.00000000  0.55468821  0.15056961
   0.50000000  0.44531179  0.65056961
   0.00000000  0.36243519  0.65981051
   0.50000000  0.63756481  0.15981051
   0.00000000  0.92763634  0.94257573
   0.50000000  0.07236366  0.44257573
   0.26955821  0.29482624  0.87379684
   0.23044179  0.70517376  0.37379684
   0.76955821  0.70517376  0.37379684
   0.73044179  0.29482624  0.87379684
unknown system                          
           1
     7.425610    0.000000    0.000000
     0.000000    6.174437    0.000000
     0.000000    0.000000    5.963929
   P    S    Li
   2   8   6
Direct configuration=    12
   0.00000000  0.27412969  0.33101671
   0.50000000  0.72587031  0.83101671
   0.21719190  0.10084557  0.21955944
   0.28280810  0.89915443  0.71955944
   0.71719190  0.89915443  0.71955944
   0.78280810  0.10084557  0.21955944
   0.00000000  0.55544305  0.15024701
   0.50000000  0.44455695  0.65024701
   0.00000000  0.35996111  0.65924206
   0.50000000  0.64003889  0.15924206
   0.00000000  0.92774127  0.94354612
   0.50000000  0.07225873  0.44354612
   0.26912923  0.29423655  0.87442121
   0.23087077  0.70576345  0.37442121
   0.76912923  0.70576345  0.37442121
   0.73087077  0.29423655  0.87442121
unknown system                          
           1
     7.467432    0.000000    0.000000
     0.000000    6.115280    0.000000
     0.000000    0.000000    5.962218
   P    S    Li
   2   8   6
Direct configuration=    13
   0.00000000  0.27419498  0.32672744
   0.50000000  0.72580502  0.82672744
   0.21694538  0.09949892  0.21971176
   0.28305462  0.90050108  0.71971176
   0.71694538  0.90050108  0.71971176
   0.78305462  0.09949892  0.21971176
   0.00000000  0.55771479  0.14927913
   0.50000000  0.44228521  0.64927913
   0.00000000  0.35251516  0.65753655
   0.50000000  0.64748484  0.15753655
   0.00000000  0.92805705  0.94645758
   0.50000000  0.07194295  0.44645758
   0.26784468  0.29246183  0.87629449
   0.23215532  0.70753817  0.37629449
   0.76784468  0.70753817  0.37629449
   0.73215532  0.29246183  0.87629449
unknown system                          
           1
     7.484241    0.000000    0.000000
     0.000000    6.117607    0.000000
     0.000000    0.000000    5.993160
   P    S    Li
   2   8   6
Direct configuration=    14
   0.00000000  0.27316717  0.32674935
   0.50000000  0.72683283  0.82674935
   0.21642612  0.09887427  0.21962689
   0.28357388  0.90112573  0.71962689
   0.71642612  0.90112573  0.71962689
   0.78357388  0.09887427  0.21962689
   0.00000000  0.55870399  0.14883084
   0.50000000  0.44129601  0.64883084
   0.00000000  0.34976191  0.65734561
   0.50000000  0.65023809  0.15734561
   0.00000000  0.92823267  0.94702030
   0.50000000  0.07176733  0.44702030
   0.26737723  0.29171759  0.87640666
   0.23262277  0.70828242  0.37640666
   0.76737723  0.70828242  0.37640666
   0.73262277  0.29171759  0.87640666
unknown system                          
           1
     7.481774    0.000000    0.000000
     0.000000    6.117266    0.000000
     0.000000    0.000000    5.988619
   P    S    Li
   2   8   6
Direct configuration=    15
   0.00000000  0.27331795  0.32674615
   0.50000000  0.72668205  0.82674615
   0.21650216  0.09896591  0.21963929
   0.28349784  0.90103409  0.71963929
   0.71650216  0.90103409  0.71963929
   0.78349784  0.09896591  0.21963929
   0.00000000  0.55855887  0.14889629
   0.50000000  0.44144113  0.64889629
   0.00000000  0.35016583  0.65737349
   0.50000000  0.64983417  0.15737349
   0.00000000  0.92820691  0.94693814
   0.50000000  0.07179309  0.44693814
   0.26744568  0.29182677  0.87639028
   0.23255432  0.70817323  0.37639028
   0.76744568  0.70817323  0.37639028
   0.73255432  0.29182677  0.87639028
unknown system                          
           1
     7.489058    0.000000    0.000000
     0.000000    6.116337    0.000000
     0.000000    0.000000    6.002430
   P    S    Li
   2   8   6
Direct configuration=    16
   0.00000000  0.27327571  0.32745077
   0.50000000  0.72672429  0.82745077
   0.21593306  0.09850601  0.21954547
   0.28406694  0.90149399  0.71954547
   0.71593306  0.90149399  0.71954547
   0.78406694  0.09850601  0.21954547
   0.00000000  0.55772465  0.14998467
   0.50000000  0.44227535  0.64998467
   0.00000000  0.34784131  0.65647438
   0.50000000  0.65215869  0.15647438
   0.00000000  0.92833705  0.94697134
   0.50000000  0.07166295  0.44697134
   0.26716880  0.29124162  0.87602054
   0.23283120  0.70875838  0.37602054
   0.76716880  0.70875838  0.37602054
   0.73283120  0.29124162  0.87602054
unknown system                          
           1
     7.492453    0.000000    0.000000
     0.000000    6.115904    0.000000
     0.000000    0.000000    6.008868
   P    S    Li
   2   8   6
Direct configuration=    17
   0.00000000  0.27325602  0.32777845
   0.50000000  0.72674398  0.82777845
   0.21566804  0.09829161  0.21950185
   0.28433196  0.90170839  0.71950185
   0.71566804  0.90170839  0.71950185
   0.78433196  0.09829161  0.21950185
   0.00000000  0.55733575  0.15049083
   0.50000000  0.44266425  0.65049083
   0.00000000  0.34675763  0.65605625
   0.50000000  0.65324237  0.15605625
   0.00000000  0.92839772  0.94698678
   0.50000000  0.07160228  0.44698678
   0.26703987  0.29096882  0.87584860
   0.23296013  0.70903118  0.37584860
   0.76703987  0.70903118  0.37584860
   0.73296013  0.29096882  0.87584860
unknown system                          
           1
     7.496228    0.000000    0.000000
     0.000000    6.120249    0.000000
     0.000000    0.000000    6.017890
   P    S    Li
   2   8   6
Direct configuration=    18
   0.00000000  0.27210005  0.32728470
   0.50000000  0.72789995  0.82728470
   0.21534903  0.09798745  0.21946774
   0.28465097  0.90201255  0.71946774
   0.71534903  0.90201255  0.71946774
   0.78465097  0.09798745  0.21946774
   0.00000000  0.55640569  0.15227727
   0.50000000  0.44359431  0.65227727
   0.00000000  0.34494976  0.65647510
   0.50000000  0.65505024  0.15647510
   0.00000000  0.92841348  0.94657981
   0.50000000  0.07158652  0.44657981
   0.26688311  0.29028038  0.87523043
   0.23311689  0.70971962  0.37523043
   0.76688311  0.70971962  0.37523043
   0.73311689  0.29028038  0.87523043
unknown system                          
           1
     7.498090    0.000000    0.000000
     0.000000    6.122391    0.000000
     0.000000    0.000000    6.022338
   P    S    Li
   2   8   6
Direct configuration=    19
   0.00000000  0.27153049  0.32704161
   0.50000000  0.72846951  0.82704161
   0.21519182  0.09783759  0.21945095
   0.28480818  0.90216241  0.71945095
   0.71519182  0.90216241  0.71945095
   0.78480818  0.09783759  0.21945095
   0.00000000  0.55594744  0.15315678
   0.50000000  0.44405256  0.65315678
   0.00000000  0.34405899  0.65668131
   0.50000000  0.65594101  0.15668131
   0.00000000  0.92842125  0.94637944
   0.50000000  0.07157875  0.44637944
   0.26680586  0.28994117  0.87492608
   0.23319414  0.71005883  0.37492608
   0.76680586  0.71005883  0.37492608
   0.73319414  0.28994117  0.87492608
unknown system                          
           1
     7.502280    0.000000    0.000000
     0.000000    6.126387    0.000000
     0.000000    0.000000    6.022405
   P    S    Li
   2   8   6
Direct configuration=    20
   0.00000000  0.27100297  0.32717532
   0.50000000  0.72899704  0.82717532
   0.21520651  0.09761142  0.21937924
   0.28479349  0.90238858  0.71937924
   0.71520651  0.90238858  0.71937924
   0.78479349  0.09761142  0.21937924
   0.00000000  0.55569267  0.15395693
   0.50000000  0.44430733  0.65395693
   0.00000000  0.34318477  0.65678368
   0.50000000  0.65681523  0.15678368
   0.00000000  0.92840095  0.94610753
   0.50000000  0.07159905  0.44610753
   0.26674643  0.28960174  0.87461563
   0.23325357  0.71039826  0.37461563
   0.76674643  0.71039826  0.37461563
   0.73325357  0.28960174  0.87461563
unknown system                          
           1
     7.514851    0.000000    0.000000
     0.000000    6.138375    0.000000
     0.000000    0.000000    6.022605
   P    S    Li
   2   8   6
Direct configuration=    21
   0.00000000  0.26942142  0.32757643
   0.50000000  0.73057858  0.82757643
   0.21525055  0.09693336  0.21916413
   0.28474945  0.90306664  0.71916413
   0.71525055  0.90306664  0.71916413
   0.78474945  0.09693336  0.21916413
   0.00000000  0.55492887  0.15635734
   0.50000000  0.44507113  0.65635734
   0.00000000  0.34056381  0.65709077
   0.50000000  0.65943619  0.15709077
   0.00000000  0.92834011  0.94529182
   0.50000000  0.07165989  0.44529182
   0.26656824  0.28858411  0.87368429
   0.23343176  0.71141589  0.37368429
   0.76656824  0.71141589  0.37368429
   0.73343176  0.28858411  0.87368429
unknown system                          
           1
     7.539993    0.000000    0.000000
     0.000000    6.162352    0.000000
     0.000000    0.000000    6.023006
   P    S    Li
   2   8   6
Direct configuration=    22
   0.00000000  0.26626451  0.32837863
   0.50000000  0.73373549  0.82837863
   0.21533848  0.09557989  0.21873392
   0.28466152  0.90442011  0.71873392
   0.71533848  0.90442011  0.71873392
   0.78466152  0.09557989  0.21873392
   0.00000000  0.55340425  0.16115800
   0.50000000  0.44659575  0.66115800
   0.00000000  0.33533215  0.65770494
   0.50000000  0.66466785  0.15770494
   0.00000000  0.92821866  0.94366045
   0.50000000  0.07178134  0.44366045
   0.26621247  0.28655283  0.87182167
   0.23378753  0.71344717  0.37182167
   0.76621247  0.71344717  0.37182167
   0.73378753  0.28655283  0.87182167
unknown system                          
           1
     7.530090    0.000000    0.000000
     0.000000    6.152908    0.000000
     0.000000    0.000000    6.022848
   P    S    Li
   2   8   6
Direct configuration=    23
   0.00000000  0.26750312  0.32806267
   0.50000000  0.73249688  0.82806267
   0.21530396  0.09611092  0.21890336
   0.28469604  0.90388908  0.71890336
   0.71530396  0.90388908  0.71890336
   0.78469604  0.09611092  0.21890336
   0.00000000  0.55400244  0.15926723
   0.50000000  0.44599756  0.65926723
   0.00000000  0.33738480  0.65746304
   0.50000000  0.66261520  0.15746304
   0.00000000  0.92826631  0.94430298
   0.50000000  0.07173369  0.44430298
   0.26635214  0.28734981  0.87255528
   0.23364786  0.71265019  0.37255528
   0.76635214  0.71265019  0.37255528
   0.73364786  0.28734981  0.87255528
unknown system                          
           1
     7.528516    0.000000    0.000000
     0.000000    6.150951    0.000000
     0.000000    0.000000    6.016015
   P    S    Li
   2   8   6
Direct configuration=    24
   0.00000000  0.26733329  0.32852177
   0.50000000  0.73266671  0.82852177
   0.21523191  0.09604359  0.21866683
   0.28476809  0.90395641  0.71866683
   0.71523191  0.90395641  0.71866683
   0.78476809  0.09604359  0.21866683
   0.00000000  0.55405267  0.15963035
   0.50000000  0.44594733  0.65963035
   0.00000000  0.33654411  0.65786583
   0.50000000  0.66345589  0.15786583
   0.00000000  0.92817869  0.94393181
   0.50000000  0.07182131  0.44393181
   0.26634038  0.28701953  0.87236489
   0.23365962  0.71298047  0.37236489
   0.76634038  0.71298047  0.37236489
   0.73365962  0.28701953  0.87236489
unknown system                          
           1
     7.523793    0.000000    0.000000
     0.000000    6.145080    0.000000
     0.000000    0.000000    5.995514
   P    S    Li
   2   8   6
Direct configuration=    25
   0.00000000  0.26682362  0.32990061
   0.50000000  0.73317638  0.82990061
   0.21501570  0.09584153  0.21795645
   0.28498430  0.90415847  0.71795645
   0.71501570  0.90415847  0.71795645
   0.78498430  0.09584153  0.21795645
   0.00000000  0.55420341  0.16072098
   0.50000000  0.44579659  0.66072098
   0.00000000  0.33402124  0.65907555
   0.50000000  0.66597876  0.15907555
   0.00000000  0.92791574  0.94281703
   0.50000000  0.07208426  0.44281703
   0.26630510  0.28602837  0.87179307
   0.23369490  0.71397163  0.37179307
   0.76630510  0.71397163  0.37179307
   0.73369490  0.28602837  0.87179307
unknown system                          
           1
     7.524719    0.000000    0.000000
     0.000000    6.146231    0.000000
     0.000000    0.000000    5.999535
   P    S    Li
   2   8   6
Direct configuration=    26
   0.00000000  0.26692367  0.32962927
   0.50000000  0.73307633  0.82962927
   0.21505813  0.09588119  0.21809624
   0.28494187  0.90411881  0.71809624
   0.71505813  0.90411881  0.71809624
   0.78494187  0.09588119  0.21809624
   0.00000000  0.55417382  0.16050636
   0.50000000  0.44582618  0.66050636
   0.00000000  0.33451649  0.65883749
   0.50000000  0.66548351  0.15883749
   0.00000000  0.92796736  0.94303640
   0.50000000  0.07203264  0.44303640
   0.26631202  0.28622294  0.87190560
   0.23368798  0.71377706  0.37190560
   0.76631202  0.71377706  0.37190560
   0.73368798  0.28622294  0.87190560
unknown system                          
           1
     7.525014    0.000000    0.000000
     0.000000    6.144985    0.000000
     0.000000    0.000000    5.997635
   P    S    Li
   2   8   6
Direct configuration=    27
   0.00000000  0.26687497  0.32970599
   0.50000000  0.73312503  0.82970599
   0.21500027  0.09586984  0.21791202
   0.28499973  0.90413016  0.71791202
   0.71500027  0.90413016  0.71791202
   0.78499973  0.09586984  0.21791202
   0.00000000  0.55427557  0.16070562
   0.50000000  0.44572443  0.66070562
   0.00000000  0.33394559  0.65947350
   0.50000000  0.66605441  0.15947350
   0.00000000  0.92788869  0.94271613
   0.50000000  0.07211131  0.44271613
   0.26633049  0.28597298  0.87179396
   0.23366951  0.71402702  0.37179396
   0.76633049  0.71402702  0.37179396
   0.73366951  0.28597298  0.87179396
unknown system                          
           1
     7.525899    0.000000    0.000000
     0.000000    6.141245    0.000000
     0.000000    0.000000    5.991934
   P    S    Li
   2   8   6
Direct configuration=    28
   0.00000000  0.26672886  0.32993622
   0.50000000  0.73327114  0.82993622
   0.21482670  0.09583577  0.21735917
   0.28517330  0.90416423  0.71735917
   0.71482670  0.90416423  0.71735917
   0.78517330  0.09583577  0.21735917
   0.00000000  0.55458090  0.16130359
   0.50000000  0.44541910  0.66130359
   0.00000000  0.33223255  0.66138213
   0.50000000  0.66776745  0.16138213
   0.00000000  0.92765263  0.94175501
   0.50000000  0.07234737  0.44175501
   0.26638588  0.28522294  0.87145895
   0.23361412  0.71477706  0.37145895
   0.76638588  0.71477706  0.37145895
   0.73361412  0.28522294  0.87145895
unknown system                          
           1
     7.527668    0.000000    0.000000
     0.000000    6.133766    0.000000
     0.000000    0.000000    5.980532
   P    S    Li
   2   8   6
Direct configuration=    29
   0.00000000  0.26643644  0.33039711
   0.50000000  0.73356356  0.83039711
   0.21447961  0.09576758  0.21625243
   0.28552039  0.90423242  0.71625243
   0.71447961  0.90423242  0.71625243
   0.78552039  0.09576758  0.21625243
   0.00000000  0.55519192  0.16250068
   0.50000000  0.44480808  0.66250068
   0.00000000  0.32880438  0.66520302
   0.50000000  0.67119562  0.16520302
   0.00000000  0.92718022  0.93983095
   0.50000000  0.07281978  0.43983095
   0.26649664  0.28372196  0.87078829
   0.23350336  0.71627804  0.37078829
   0.76649664  0.71627804  0.37078829
   0.73350336  0.28372196  0.87078829
unknown system                          
           1
     7.526638    0.000000    0.000000
     0.000000    6.138121    0.000000
     0.000000    0.000000    5.987172
   P    S    Li
   2   8   6
Direct configuration=    30
   0.00000000  0.26660692  0.33012822
   0.50000000  0.73339308  0.83012822
   0.21468167  0.09580733  0.21689812
   0.28531833  0.90419267  0.71689812
   0.71468167  0.90419267  0.71689812
   0.78531833  0.09580733  0.21689812
   0.00000000  0.55483568  0.16180228
   0.50000000  0.44516432  0.66180228
   0.00000000  0.33080306  0.66297385
   0.50000000  0.66919694  0.16297385
   0.00000000  0.92745564  0.94095348
   0.50000000  0.07254436  0.44095348
   0.26643216  0.28459706  0.87117956
   0.23356784  0.71540294  0.37117956
   0.76643216  0.71540294  0.37117956
   0.73356784  0.28459706  0.87117956
unknown system                          
           1
     7.535709    0.000000    0.000000
     0.000000    6.139381    0.000000
     0.000000    0.000000    5.984652
   P    S    Li
   2   8   6
Direct configuration=    31
   0.00000000  0.26680822  0.33026455
   0.50000000  0.73319178  0.83026455
   0.21463290  0.09587842  0.21679146
   0.28536710  0.90412158  0.71679146
   0.71463290  0.90412158  0.71679146
   0.78536710  0.09587842  0.21679146
   0.00000000  0.55505779  0.16211828
   0.50000000  0.44494221  0.66211828
   0.00000000  0.33013291  0.66345320
   0.50000000  0.66986709  0.16345320
   0.00000000  0.92738208  0.94041874
   0.50000000  0.07261792  0.44041874
   0.26655659  0.28427595  0.87108775
   0.23344341  0.71572405  0.37108775
   0.76655659  0.71572405  0.37108775
   0.73344341  0.28427595  0.87108775
unknown system                          
           1
     7.562925    0.000000    0.000000
     0.000000    6.143160    0.000000
     0.000000    0.000000    5.977094
   P    S    Li
   2   8   6
Direct configuration=    32
   0.00000000  0.26741198  0.33067373
   0.50000000  0.73258802  0.83067373
   0.21448675  0.09609165  0.21647135
   0.28551325  0.90390835  0.71647135
   0.71448675  0.90390835  0.71647135
   0.78551325  0.09609165  0.21647135
   0.00000000  0.55572398  0.16306667
   0.50000000  0.44427602  0.66306667
   0.00000000  0.32812287  0.66489185
   0.50000000  0.67187713  0.16489185
   0.00000000  0.92716146  0.93881383
   0.50000000  0.07283854  0.43881383
   0.26692943  0.28331282  0.87081221
   0.23307057  0.71668718  0.37081221
   0.76692943  0.71668718  0.37081221
   0.73307057  0.28331282  0.87081221
unknown system                          
           1
     7.568963    0.000000    0.000000
     0.000000    6.143546    0.000000
     0.000000    0.000000    5.974531
   P    S    Li
   2   8   6
Direct configuration=    33
   0.00000000  0.26744181  0.33071342
   0.50000000  0.73255819  0.83071342
   0.21428529  0.09629548  0.21649656
   0.28571471  0.90370452  0.71649656
   0.71428529  0.90370452  0.71649656
   0.78571471  0.09629548  0.21649656
   0.00000000  0.55593381  0.16339332
   0.50000000  0.44406619  0.66339332
   0.00000000  0.32759210  0.66513202
   0.50000000  0.67240790  0.16513202
   0.00000000  0.92713886  0.93831524
   0.50000000  0.07286114  0.43831524
   0.26706571  0.28302876  0.87073303
   0.23293429  0.71697124  0.37073303
   0.76706571  0.71697124  0.37073303
   0.73293429  0.28302876  0.87073303
unknown system                          
           1
     7.587076    0.000000    0.000000
     0.000000    6.144705    0.000000
     0.000000    0.000000    5.966843
   P    S    Li
   2   8   6
Direct configuration=    34
   0.00000000  0.26753130  0.33083254
   0.50000000  0.73246870  0.83083254
   0.21368138  0.09690693  0.21657223
   0.28631862  0.90309307  0.71657223
   0.71368138  0.90309307  0.71657223
   0.78631862  0.09690693  0.21657223
   0.00000000  0.55656329  0.16437370
   0.50000000  0.44343671  0.66437370
   0.00000000  0.32599987  0.66585286
   0.50000000  0.67400013  0.16585286
   0.00000000  0.92707105  0.93681881
   0.50000000  0.07292895  0.43681881
   0.26747423  0.28217664  0.87049541
   0.23252577  0.71782336  0.37049541
   0.76747423  0.71782336  0.37049541
   0.73252577  0.28217664  0.87049541
unknown system                          
           1
     7.623301    0.000000    0.000000
     0.000000    6.147022    0.000000
     0.000000    0.000000    5.951466
   P    S    Li
   2   8   6
Direct configuration=    35
   0.00000000  0.26771025  0.33107109
   0.50000000  0.73228975  0.83107109
   0.21247645  0.09812960  0.21672377
   0.28752355  0.90187040  0.71672377
   0.71247645  0.90187040  0.71672377
   0.78752355  0.09812960  0.21672377
   0.00000000  0.55782200  0.16633700
   0.50000000  0.44217800  0.66633700
   0.00000000  0.32281601  0.66729638
   0.50000000  0.67718399  0.16729638
   0.00000000  0.92693546  0.93382211
   0.50000000  0.07306454  0.43382211
   0.26828932  0.28047273  0.87001954
   0.23171068  0.71952727  0.37001954
   0.76828932  0.71952727  0.37001954
   0.73171068  0.28047273  0.87001954
unknown system                          
           1
     7.695752    0.000000    0.000000
     0.000000    6.151657    0.000000
     0.000000    0.000000    5.920713
   P    S    Li
   2   8   6
Direct configuration=    36
   0.00000000  0.26806801  0.33154941
   0.50000000  0.73193199  0.83154941
   0.21007805  0.10057402  0.21702764
   0.28992195  0.89942598  0.71702764
   0.71007805  0.89942598  0.71702764
   0.78992195  0.10057402  0.21702764
   0.00000000  0.56033848  0.17027372
   0.50000000  0.43966152  0.67027372
   0.00000000  0.31645071  0.67019090
   0.50000000  0.68354929  0.17019090
   0.00000000  0.92666437  0.92781321
   0.50000000  0.07333563  0.42781321
   0.26991175  0.27706618  0.86906534
   0.23008825  0.72293382  0.36906534
   0.76991175  0.72293382  0.36906534
   0.73008825  0.27706618  0.86906534